/*--------------------------------*- C++ -*----------------------------------*\
| =========                 |                                                 |
| \\      /  F ield         | OpenFOAM: The Open Source CFD Toolbox           |
|  \\    /   O peration     | Version:  2506                                  |
|   \\  /    A nd           | Website:  www.openfoam.com                      |
|    \\/     M anipulation  |                                                 |
\*---------------------------------------------------------------------------*/
FoamFile
{
    version     2.0;
    format      ascii;
    arch        "LSB;label=32;scalar=64";
    class       volScalarField;
    location    "90";
    object      epsilon;
}
// * * * * * * * * * * * * * * * * * * * * * * * * * * * * * * * * * * * * * //

dimensions      [0 2 -3 0 0 0 0];

internalField   nonuniform List<scalar> 
144676
(
0.116221
0.116222
0.116222
0.116222
0.116222
0.116222
0.116222
0.116222
0.116222
0.116222
0.116222
0.116222
0.116222
0.116221
0.116221
0.116221
0.116221
0.116222
0.116222
0.116222
0.116222
0.116222
0.116222
0.116222
0.116222
0.116222
0.116222
0.116222
0.116222
0.116221
0.0471257
0.0471257
0.0471259
0.047126
0.0471261
0.0471262
0.0471263
0.0471264
0.0471265
0.0471266
0.0471267
0.0471268
0.0471268
0.0471269
0.0471269
0.0471269
0.0471269
0.0471268
0.0471268
0.0471267
0.0471266
0.0471265
0.0471264
0.0471263
0.0471261
0.047126
0.047126
0.0471259
0.0471257
0.0471257
0.0283362
0.0283362
0.0283362
0.0283363
0.0283363
0.0283364
0.0283365
0.0283366
0.0283366
0.0283367
0.0283368
0.0283369
0.0283369
0.0283369
0.028337
0.028337
0.0283369
0.0283369
0.0283369
0.0283368
0.0283367
0.0283366
0.0283366
0.0283365
0.0283364
0.0283363
0.0283363
0.0283362
0.0283362
0.0283362
0.0202975
0.0202975
0.0202975
0.0202975
0.0202976
0.0202976
0.0202977
0.0202978
0.0202978
0.0202979
0.020298
0.020298
0.020298
0.0202981
0.0202981
0.0202981
0.0202981
0.020298
0.020298
0.020298
0.0202979
0.0202978
0.0202978
0.0202977
0.0202976
0.0202976
0.0202975
0.0202975
0.0202975
0.0202975
0.0158294
0.0158294
0.0158295
0.0158295
0.0158295
0.0158296
0.0158296
0.0158297
0.0158298
0.0158298
0.0158299
0.0158299
0.0158299
0.01583
0.01583
0.01583
0.01583
0.0158299
0.0158299
0.0158299
0.0158298
0.0158298
0.0158297
0.0158296
0.0158296
0.0158295
0.0158295
0.0158295
0.0158294
0.0158294
0.0129786
0.0129786
0.0129786
0.0129786
0.0129787
0.0129787
0.0129788
0.0129788
0.0129789
0.0129789
0.012979
0.012979
0.012979
0.0129791
0.0129791
0.0129791
0.0129791
0.012979
0.012979
0.012979
0.0129789
0.0129789
0.0129788
0.0129788
0.0129787
0.0129787
0.0129786
0.0129786
0.0129786
0.0129786
0.0109992
0.0109992
0.0109992
0.0109993
0.0109993
0.0109993
0.0109994
0.0109994
0.0109995
0.0109995
0.0109995
0.0109996
0.0109996
0.0109996
0.0109996
0.0109996
0.0109996
0.0109996
0.0109996
0.0109995
0.0109995
0.0109994
0.0109994
0.0109994
0.0109993
0.0109993
0.0109993
0.0109992
0.0109992
0.0109992
0.00954408
0.00954408
0.0095441
0.00954412
0.00954414
0.00954418
0.00954421
0.00954425
0.00954429
0.00954432
0.00954436
0.00954439
0.00954441
0.00954443
0.00954443
0.00954443
0.00954443
0.00954441
0.00954439
0.00954436
0.00954432
0.00954429
0.00954425
0.00954421
0.00954418
0.00954414
0.00954412
0.0095441
0.00954408
0.00954408
0.00842908
0.00842909
0.0084291
0.00842912
0.00842914
0.00842917
0.0084292
0.00842924
0.00842927
0.0084293
0.00842933
0.00842935
0.00842937
0.00842939
0.0084294
0.0084294
0.00842939
0.00842937
0.00842935
0.00842933
0.0084293
0.00842927
0.00842924
0.0084292
0.00842917
0.00842914
0.00842912
0.0084291
0.00842909
0.00842908
0.00754738
0.00754739
0.0075474
0.00754741
0.00754743
0.00754746
0.00754749
0.00754751
0.00754754
0.00754757
0.00754759
0.00754762
0.00754763
0.00754765
0.00754765
0.00754765
0.00754765
0.00754763
0.00754762
0.00754759
0.00754757
0.00754754
0.00754751
0.00754749
0.00754746
0.00754743
0.00754741
0.0075474
0.00754739
0.00754738
0.00683266
0.00683266
0.00683267
0.00683269
0.00683271
0.00683273
0.00683275
0.00683277
0.0068328
0.00683282
0.00683284
0.00683286
0.00683288
0.00683289
0.00683289
0.00683289
0.00683289
0.00683288
0.00683286
0.00683284
0.00683282
0.0068328
0.00683277
0.00683275
0.00683273
0.0068327
0.00683269
0.00683267
0.00683266
0.00683266
0.00624157
0.00624158
0.00624158
0.0062416
0.00624161
0.00624163
0.00624165
0.00624167
0.00624169
0.00624171
0.00624173
0.00624175
0.00624176
0.00624177
0.00624177
0.00624177
0.00624177
0.00624176
0.00624175
0.00624173
0.00624171
0.00624169
0.00624167
0.00624165
0.00624163
0.00624161
0.0062416
0.00624158
0.00624158
0.00624157
0.00574459
0.00574459
0.0057446
0.00574461
0.00574462
0.00574464
0.00574465
0.00574467
0.00574469
0.00574471
0.00574472
0.00574474
0.00574475
0.00574475
0.00574476
0.00574476
0.00574475
0.00574475
0.00574474
0.00574472
0.00574471
0.00574469
0.00574467
0.00574465
0.00574464
0.00574462
0.00574461
0.0057446
0.00574459
0.00574459
0.00532089
0.00532089
0.0053209
0.0053209
0.00532092
0.00532093
0.00532094
0.00532096
0.00532097
0.00532099
0.005321
0.00532101
0.00532102
0.00532103
0.00532103
0.00532103
0.00532103
0.00532102
0.00532101
0.005321
0.00532099
0.00532097
0.00532096
0.00532094
0.00532093
0.00532092
0.0053209
0.0053209
0.00532089
0.00532089
0.00495537
0.00495538
0.00495538
0.00495539
0.0049554
0.00495541
0.00495542
0.00495543
0.00495544
0.00495546
0.00495547
0.00495548
0.00495549
0.00495549
0.00495549
0.00495549
0.00495549
0.00495549
0.00495548
0.00495547
0.00495546
0.00495544
0.00495543
0.00495542
0.00495541
0.0049554
0.00495539
0.00495538
0.00495538
0.00495537
0.00463683
0.00463683
0.00463683
0.00463684
0.00463685
0.00463686
0.00463687
0.00463688
0.00463689
0.0046369
0.00463691
0.00463691
0.00463692
0.00463693
0.00463693
0.00463693
0.00463693
0.00463692
0.00463691
0.00463691
0.0046369
0.00463689
0.00463688
0.00463687
0.00463686
0.00463685
0.00463684
0.00463683
0.00463683
0.00463683
0.00435674
0.00435674
0.00435675
0.00435675
0.00435676
0.00435676
0.00435677
0.00435678
0.00435679
0.0043568
0.00435681
0.00435681
0.00435682
0.00435682
0.00435682
0.00435682
0.00435682
0.00435682
0.00435681
0.00435681
0.0043568
0.00435679
0.00435678
0.00435677
0.00435676
0.00435676
0.00435675
0.00435675
0.00435674
0.00435674
0.00410855
0.00410855
0.00410855
0.00410855
0.00410856
0.00410856
0.00410857
0.00410858
0.00410859
0.00410859
0.0041086
0.0041086
0.00410861
0.00410861
0.00410861
0.00410861
0.00410861
0.00410861
0.0041086
0.0041086
0.00410859
0.00410859
0.00410858
0.00410857
0.00410856
0.00410856
0.00410855
0.00410855
0.00410855
0.00410854
0.00388708
0.00388708
0.00388709
0.00388709
0.00388709
0.0038871
0.00388711
0.00388711
0.00388712
0.00388712
0.00388713
0.00388713
0.00388714
0.00388714
0.00388714
0.00388714
0.00388714
0.00388714
0.00388713
0.00388713
0.00388712
0.00388712
0.00388711
0.00388711
0.0038871
0.00388709
0.00388709
0.00388709
0.00388708
0.00388708
0.00368826
0.00368826
0.00368826
0.00368826
0.00368827
0.00368827
0.00368827
0.00368828
0.00368828
0.00368829
0.00368829
0.0036883
0.0036883
0.0036883
0.0036883
0.0036883
0.0036883
0.0036883
0.0036883
0.00368829
0.00368829
0.00368828
0.00368828
0.00368827
0.00368827
0.00368827
0.00368826
0.00368826
0.00368826
0.00368826
0.00350876
0.00350876
0.00350876
0.00350876
0.00350877
0.00350877
0.00350877
0.00350878
0.00350878
0.00350879
0.00350879
0.00350879
0.00350879
0.0035088
0.0035088
0.0035088
0.0035088
0.00350879
0.00350879
0.00350879
0.00350879
0.00350878
0.00350878
0.00350877
0.00350877
0.00350877
0.00350876
0.00350876
0.00350876
0.00350876
0.0033459
0.0033459
0.00334591
0.00334591
0.00334591
0.00334591
0.00334592
0.00334592
0.00334592
0.00334592
0.00334593
0.00334593
0.00334593
0.00334593
0.00334593
0.00334593
0.00334593
0.00334593
0.00334593
0.00334593
0.00334592
0.00334592
0.00334592
0.00334592
0.00334591
0.00334591
0.00334591
0.00334591
0.0033459
0.0033459
0.00319748
0.00319748
0.00319748
0.00319748
0.00319748
0.00319748
0.00319748
0.00319749
0.00319749
0.00319749
0.00319749
0.0031975
0.0031975
0.0031975
0.0031975
0.0031975
0.0031975
0.0031975
0.0031975
0.00319749
0.00319749
0.00319749
0.00319749
0.00319748
0.00319748
0.00319748
0.00319748
0.00319748
0.00319748
0.00319748
0.00306165
0.00306165
0.00306165
0.00306165
0.00306165
0.00306165
0.00306165
0.00306165
0.00306166
0.00306166
0.00306166
0.00306166
0.00306166
0.00306166
0.00306166
0.00306166
0.00306166
0.00306166
0.00306166
0.00306166
0.00306166
0.00306166
0.00306165
0.00306165
0.00306165
0.00306165
0.00306165
0.00306165
0.00306165
0.00306165
0.0029369
0.0029369
0.0029369
0.0029369
0.0029369
0.0029369
0.0029369
0.0029369
0.0029369
0.0029369
0.00293691
0.00293691
0.00293691
0.00293691
0.00293691
0.00293691
0.00293691
0.00293691
0.00293691
0.00293691
0.0029369
0.0029369
0.0029369
0.0029369
0.0029369
0.0029369
0.0029369
0.0029369
0.0029369
0.00293689
0.00282199
0.00282199
0.00282199
0.00282199
0.00282199
0.00282199
0.00282199
0.00282199
0.00282199
0.00282199
0.00282199
0.002822
0.002822
0.002822
0.002822
0.002822
0.002822
0.002822
0.002822
0.00282199
0.00282199
0.00282199
0.00282199
0.00282199
0.00282199
0.00282199
0.00282199
0.00282199
0.00282199
0.00282199
0.002716
0.002716
0.002716
0.002716
0.002716
0.002716
0.002716
0.002716
0.002716
0.002716
0.002716
0.002716
0.00271601
0.00271601
0.00271601
0.00271601
0.00271601
0.00271601
0.002716
0.002716
0.002716
0.002716
0.002716
0.002716
0.002716
0.002716
0.002716
0.002716
0.002716
0.002716
0.00261857
0.00261857
0.00261857
0.00261857
0.00261858
0.00261858
0.00261858
0.00261858
0.00261858
0.00261858
0.00261858
0.00261858
0.00261858
0.00261858
0.00261858
0.00261858
0.00261858
0.00261858
0.00261858
0.00261858
0.00261858
0.00261858
0.00261858
0.00261858
0.00261858
0.00261858
0.00261857
0.00261857
0.00261857
0.00261857
0.00253109
0.00253109
0.00253109
0.00253109
0.00253109
0.00253109
0.00253109
0.00253109
0.00253109
0.00253109
0.00253109
0.00253109
0.00253109
0.00253109
0.00253109
0.00253109
0.00253109
0.00253109
0.00253109
0.00253109
0.00253109
0.00253109
0.00253109
0.00253109
0.00253109
0.00253109
0.00253109
0.00253109
0.00253109
0.00253109
0.00246257
0.00246257
0.00246257
0.00246257
0.00246257
0.00246257
0.00246257
0.00246257
0.00246257
0.00246257
0.00246257
0.00246257
0.00246257
0.00246257
0.00246257
0.00246257
0.00246257
0.00246257
0.00246257
0.00246257
0.00246257
0.00246257
0.00246257
0.00246257
0.00246257
0.00246257
0.00246257
0.00246257
0.00246257
0.00246257
0.0963949
0.0963965
0.0963967
0.0963965
0.0963963
0.0963959
0.0963955
0.0963951
0.0963946
0.0963942
0.0963938
0.0963935
0.0963932
0.096393
0.0963929
0.0963929
0.096393
0.0963932
0.0963935
0.0963938
0.0963942
0.0963946
0.0963951
0.0963955
0.0963959
0.0963963
0.0963965
0.0963967
0.0963965
0.0963949
0.0468477
0.0468475
0.0468476
0.0468478
0.046848
0.0468483
0.0468486
0.0468489
0.0468492
0.0468494
0.0468497
0.0468499
0.0468501
0.0468502
0.0468503
0.0468503
0.0468502
0.0468501
0.0468499
0.0468497
0.0468494
0.0468491
0.0468489
0.0468486
0.0468483
0.046848
0.0468478
0.0468476
0.0468475
0.0468477
0.0283954
0.0283952
0.0283953
0.0283954
0.0283955
0.0283957
0.0283959
0.0283961
0.0283963
0.0283965
0.0283967
0.0283969
0.028397
0.0283971
0.0283971
0.0283971
0.0283971
0.028397
0.0283969
0.0283967
0.0283965
0.0283963
0.0283961
0.0283959
0.0283957
0.0283955
0.0283954
0.0283953
0.0283952
0.0283954
0.0202991
0.0202991
0.0202991
0.0202992
0.0202993
0.0202995
0.0202996
0.0202998
0.0202999
0.0203001
0.0203002
0.0203003
0.0203004
0.0203005
0.0203006
0.0203006
0.0203005
0.0203004
0.0203003
0.0203002
0.0203001
0.0202999
0.0202998
0.0202996
0.0202995
0.0202993
0.0202992
0.0202991
0.0202991
0.0202991
0.0158165
0.0158165
0.0158165
0.0158166
0.0158167
0.0158168
0.0158169
0.015817
0.0158172
0.0158173
0.0158174
0.0158175
0.0158176
0.0158177
0.0158177
0.0158177
0.0158177
0.0158176
0.0158175
0.0158174
0.0158173
0.0158172
0.015817
0.0158169
0.0158168
0.0158167
0.0158166
0.0158165
0.0158165
0.0158165
0.0129654
0.0129655
0.0129655
0.0129656
0.0129656
0.0129657
0.0129658
0.0129659
0.0129661
0.0129662
0.0129663
0.0129664
0.0129664
0.0129665
0.0129665
0.0129665
0.0129665
0.0129664
0.0129664
0.0129663
0.0129662
0.0129661
0.0129659
0.0129658
0.0129657
0.0129656
0.0129656
0.0129655
0.0129655
0.0129654
0.0109884
0.0109884
0.0109884
0.0109885
0.0109886
0.0109887
0.0109887
0.0109888
0.0109889
0.010989
0.0109891
0.0109892
0.0109893
0.0109893
0.0109893
0.0109893
0.0109893
0.0109893
0.0109892
0.0109891
0.010989
0.0109889
0.0109888
0.0109887
0.0109887
0.0109886
0.0109885
0.0109884
0.0109884
0.0109884
0.00953558
0.00953559
0.00953562
0.00953567
0.00953573
0.0095358
0.00953588
0.00953597
0.00953605
0.00953614
0.00953621
0.00953628
0.00953633
0.00953637
0.00953639
0.00953639
0.00953637
0.00953633
0.00953628
0.00953621
0.00953614
0.00953605
0.00953597
0.00953588
0.0095358
0.00953573
0.00953567
0.00953562
0.00953559
0.00953558
0.00842242
0.00842243
0.00842246
0.0084225
0.00842256
0.00842262
0.00842269
0.00842276
0.00842284
0.00842291
0.00842298
0.00842303
0.00842308
0.00842311
0.00842313
0.00842313
0.00842311
0.00842308
0.00842303
0.00842298
0.00842291
0.00842284
0.00842276
0.00842269
0.00842262
0.00842256
0.0084225
0.00842246
0.00842243
0.00842242
0.00754211
0.00754212
0.00754214
0.00754218
0.00754223
0.00754228
0.00754234
0.0075424
0.00754247
0.00754253
0.00754259
0.00754264
0.00754268
0.0075427
0.00754272
0.00754272
0.0075427
0.00754268
0.00754264
0.00754259
0.00754253
0.00754247
0.0075424
0.00754234
0.00754228
0.00754222
0.00754218
0.00754214
0.00754212
0.00754211
0.00682842
0.00682843
0.00682845
0.00682848
0.00682852
0.00682857
0.00682862
0.00682868
0.00682873
0.00682879
0.00682884
0.00682888
0.00682891
0.00682893
0.00682895
0.00682895
0.00682893
0.00682891
0.00682888
0.00682884
0.00682879
0.00682873
0.00682868
0.00682862
0.00682857
0.00682852
0.00682848
0.00682845
0.00682843
0.00682842
0.00623811
0.00623812
0.00623813
0.00623816
0.0062382
0.00623824
0.00623828
0.00623833
0.00623838
0.00623842
0.00623846
0.0062385
0.00623853
0.00623855
0.00623856
0.00623856
0.00623855
0.00623853
0.0062385
0.00623846
0.00623842
0.00623837
0.00623833
0.00623828
0.00623824
0.00623819
0.00623816
0.00623813
0.00623812
0.00623811
0.00574171
0.00574171
0.00574173
0.00574175
0.00574178
0.00574181
0.00574185
0.00574189
0.00574193
0.00574197
0.00574201
0.00574204
0.00574206
0.00574208
0.00574209
0.00574209
0.00574208
0.00574206
0.00574204
0.00574201
0.00574197
0.00574193
0.00574189
0.00574185
0.00574181
0.00574178
0.00574175
0.00574173
0.00574171
0.00574171
0.00531844
0.00531845
0.00531846
0.00531848
0.0053185
0.00531853
0.00531857
0.0053186
0.00531863
0.00531867
0.0053187
0.00531872
0.00531875
0.00531876
0.00531877
0.00531877
0.00531876
0.00531874
0.00531872
0.0053187
0.00531867
0.00531863
0.0053186
0.00531857
0.00531853
0.0053185
0.00531848
0.00531846
0.00531845
0.00531844
0.00495326
0.00495326
0.00495327
0.00495329
0.00495331
0.00495334
0.00495336
0.00495339
0.00495342
0.00495345
0.00495347
0.0049535
0.00495351
0.00495353
0.00495353
0.00495353
0.00495353
0.00495351
0.0049535
0.00495347
0.00495345
0.00495342
0.00495339
0.00495336
0.00495334
0.00495331
0.00495329
0.00495327
0.00495326
0.00495326
0.00463496
0.00463497
0.00463498
0.00463499
0.00463501
0.00463503
0.00463505
0.00463507
0.0046351
0.00463512
0.00463514
0.00463516
0.00463518
0.00463519
0.00463519
0.00463519
0.00463519
0.00463518
0.00463516
0.00463514
0.00463512
0.0046351
0.00463507
0.00463505
0.00463503
0.00463501
0.00463499
0.00463497
0.00463497
0.00463496
0.00435507
0.00435507
0.00435507
0.00435509
0.0043551
0.00435512
0.00435514
0.00435516
0.00435518
0.0043552
0.00435521
0.00435523
0.00435524
0.00435525
0.00435525
0.00435525
0.00435525
0.00435524
0.00435523
0.00435521
0.0043552
0.00435518
0.00435516
0.00435514
0.00435512
0.0043551
0.00435509
0.00435507
0.00435507
0.00435506
0.00410701
0.00410701
0.00410702
0.00410703
0.00410704
0.00410705
0.00410707
0.00410708
0.0041071
0.00410712
0.00410713
0.00410714
0.00410715
0.00410716
0.00410717
0.00410717
0.00410716
0.00410715
0.00410714
0.00410713
0.00410712
0.0041071
0.00410708
0.00410707
0.00410705
0.00410704
0.00410703
0.00410702
0.00410701
0.00410701
0.00388565
0.00388565
0.00388566
0.00388566
0.00388567
0.00388569
0.0038857
0.00388571
0.00388573
0.00388574
0.00388575
0.00388576
0.00388577
0.00388578
0.00388578
0.00388578
0.00388578
0.00388577
0.00388576
0.00388575
0.00388574
0.00388573
0.00388571
0.0038857
0.00388568
0.00388567
0.00388566
0.00388566
0.00388565
0.00388565
0.0036869
0.0036869
0.0036869
0.00368691
0.00368691
0.00368692
0.00368693
0.00368695
0.00368696
0.00368697
0.00368698
0.00368699
0.00368699
0.003687
0.003687
0.003687
0.003687
0.00368699
0.00368699
0.00368698
0.00368697
0.00368696
0.00368695
0.00368693
0.00368692
0.00368691
0.00368691
0.0036869
0.0036869
0.0036869
0.00350745
0.00350745
0.00350745
0.00350746
0.00350747
0.00350747
0.00350748
0.00350749
0.0035075
0.00350751
0.00350752
0.00350752
0.00350753
0.00350753
0.00350753
0.00350753
0.00350753
0.00350753
0.00350752
0.00350752
0.00350751
0.0035075
0.00350749
0.00350748
0.00350747
0.00350747
0.00350746
0.00350745
0.00350745
0.00350745
0.00334463
0.00334463
0.00334463
0.00334464
0.00334464
0.00334465
0.00334466
0.00334466
0.00334467
0.00334468
0.00334468
0.00334469
0.00334469
0.0033447
0.0033447
0.0033447
0.0033447
0.00334469
0.00334469
0.00334468
0.00334468
0.00334467
0.00334466
0.00334466
0.00334465
0.00334464
0.00334464
0.00334463
0.00334463
0.00334463
0.00319624
0.00319624
0.00319624
0.00319624
0.00319625
0.00319625
0.00319626
0.00319627
0.00319627
0.00319628
0.00319628
0.00319629
0.00319629
0.00319629
0.00319629
0.00319629
0.00319629
0.00319629
0.00319629
0.00319628
0.00319628
0.00319627
0.00319627
0.00319626
0.00319625
0.00319625
0.00319624
0.00319624
0.00319624
0.00319624
0.00306047
0.00306047
0.00306047
0.00306047
0.00306048
0.00306048
0.00306049
0.00306049
0.0030605
0.0030605
0.0030605
0.00306051
0.00306051
0.00306051
0.00306051
0.00306051
0.00306051
0.00306051
0.00306051
0.0030605
0.0030605
0.0030605
0.00306049
0.00306049
0.00306048
0.00306048
0.00306047
0.00306047
0.00306047
0.00306047
0.00293587
0.00293587
0.00293587
0.00293587
0.00293587
0.00293587
0.00293588
0.00293588
0.00293588
0.00293589
0.00293589
0.00293589
0.0029359
0.0029359
0.0029359
0.0029359
0.0029359
0.0029359
0.00293589
0.00293589
0.00293589
0.00293588
0.00293588
0.00293588
0.00293587
0.00293587
0.00293587
0.00293587
0.00293587
0.00293587
0.00282133
0.00282133
0.00282133
0.00282134
0.00282134
0.00282134
0.00282134
0.00282135
0.00282135
0.00282135
0.00282135
0.00282135
0.00282136
0.00282136
0.00282136
0.00282136
0.00282136
0.00282136
0.00282135
0.00282135
0.00282135
0.00282135
0.00282134
0.00282134
0.00282134
0.00282134
0.00282134
0.00282133
0.00282133
0.00282133
0.00271633
0.00271633
0.00271633
0.00271633
0.00271633
0.00271633
0.00271634
0.00271634
0.00271634
0.00271634
0.00271634
0.00271635
0.00271635
0.00271635
0.00271635
0.00271635
0.00271635
0.00271635
0.00271634
0.00271634
0.00271634
0.00271634
0.00271634
0.00271634
0.00271633
0.00271633
0.00271633
0.00271633
0.00271633
0.00271633
0.00262148
0.00262148
0.00262147
0.00262148
0.00262148
0.00262148
0.00262148
0.00262148
0.00262148
0.00262148
0.00262148
0.00262148
0.00262148
0.00262148
0.00262149
0.00262149
0.00262148
0.00262148
0.00262148
0.00262148
0.00262148
0.00262148
0.00262148
0.00262148
0.00262148
0.00262148
0.00262148
0.00262147
0.00262148
0.00262148
0.00254045
0.00254045
0.00254045
0.00254045
0.00254045
0.00254045
0.00254045
0.00254045
0.00254045
0.00254045
0.00254045
0.00254045
0.00254045
0.00254046
0.00254046
0.00254046
0.00254046
0.00254045
0.00254045
0.00254045
0.00254045
0.00254045
0.00254045
0.00254045
0.00254045
0.00254045
0.00254045
0.00254045
0.00254045
0.00254045
0.00248536
0.00248536
0.00248536
0.00248536
0.00248536
0.00248536
0.00248536
0.00248536
0.00248536
0.00248536
0.00248536
0.00248536
0.00248536
0.00248536
0.00248536
0.00248536
0.00248536
0.00248536
0.00248536
0.00248536
0.00248536
0.00248536
0.00248536
0.00248536
0.00248536
0.00248536
0.00248536
0.00248536
0.00248536
0.00248536
0.0825742
0.0825752
0.0825753
0.0825749
0.0825742
0.0825734
0.0825724
0.0825714
0.0825704
0.0825694
0.0825684
0.0825676
0.082567
0.0825665
0.0825663
0.0825663
0.0825665
0.082567
0.0825676
0.0825684
0.0825694
0.0825704
0.0825714
0.0825724
0.0825734
0.0825742
0.0825749
0.0825753
0.0825752
0.0825742
0.0460593
0.0460586
0.0460587
0.046059
0.0460595
0.04606
0.0460605
0.0460611
0.0460617
0.0460623
0.0460628
0.0460633
0.0460636
0.0460639
0.046064
0.046064
0.0460639
0.0460636
0.0460633
0.0460628
0.0460623
0.0460617
0.0460611
0.0460605
0.04606
0.0460595
0.046059
0.0460587
0.0460586
0.0460593
0.0284089
0.0284086
0.0284086
0.0284089
0.0284091
0.0284095
0.0284099
0.0284103
0.0284107
0.0284111
0.0284115
0.0284118
0.028412
0.0284122
0.0284123
0.0284123
0.0284122
0.028412
0.0284118
0.0284115
0.0284111
0.0284107
0.0284103
0.0284099
0.0284095
0.0284091
0.0284088
0.0284086
0.0284086
0.0284089
0.0203077
0.0203077
0.0203078
0.0203079
0.0203081
0.0203084
0.0203087
0.020309
0.0203093
0.0203096
0.0203099
0.0203101
0.0203103
0.0203104
0.0203105
0.0203105
0.0203104
0.0203103
0.0203101
0.0203099
0.0203096
0.0203093
0.020309
0.0203087
0.0203084
0.0203081
0.0203079
0.0203078
0.0203077
0.0203077
0.0158098
0.0158098
0.0158098
0.01581
0.0158102
0.0158104
0.0158106
0.0158108
0.0158111
0.0158113
0.0158115
0.0158117
0.0158119
0.015812
0.0158121
0.0158121
0.015812
0.0158119
0.0158117
0.0158115
0.0158113
0.0158111
0.0158108
0.0158106
0.0158104
0.0158101
0.01581
0.0158098
0.0158098
0.0158098
0.0129557
0.0129557
0.0129557
0.0129558
0.012956
0.0129562
0.0129564
0.0129566
0.0129568
0.012957
0.0129572
0.0129573
0.0129574
0.0129575
0.0129576
0.0129576
0.0129575
0.0129574
0.0129573
0.0129572
0.012957
0.0129568
0.0129566
0.0129564
0.0129562
0.012956
0.0129558
0.0129557
0.0129557
0.0129557
0.0109794
0.0109794
0.0109795
0.0109795
0.0109797
0.0109798
0.01098
0.0109802
0.0109803
0.0109805
0.0109807
0.0109808
0.0109809
0.010981
0.010981
0.010981
0.010981
0.0109809
0.0109808
0.0109807
0.0109805
0.0109803
0.0109802
0.01098
0.0109798
0.0109797
0.0109795
0.0109795
0.0109794
0.0109794
0.00952809
0.00952811
0.00952816
0.00952824
0.00952835
0.00952848
0.00952862
0.00952877
0.00952892
0.00952907
0.00952921
0.00952932
0.00952942
0.00952948
0.00952952
0.00952952
0.00952948
0.00952942
0.00952932
0.00952921
0.00952907
0.00952892
0.00952877
0.00952862
0.00952848
0.00952835
0.00952824
0.00952816
0.00952811
0.00952809
0.00841637
0.00841639
0.00841644
0.00841651
0.0084166
0.00841671
0.00841683
0.00841696
0.00841709
0.00841722
0.00841734
0.00841744
0.00841752
0.00841757
0.0084176
0.0084176
0.00841757
0.00841752
0.00841744
0.00841734
0.00841722
0.00841709
0.00841696
0.00841683
0.00841671
0.0084166
0.00841651
0.00841643
0.00841639
0.00841637
0.00753722
0.00753724
0.00753728
0.00753734
0.00753742
0.00753752
0.00753762
0.00753774
0.00753785
0.00753796
0.00753806
0.00753814
0.00753821
0.00753826
0.00753828
0.00753828
0.00753826
0.00753821
0.00753814
0.00753806
0.00753796
0.00753785
0.00753774
0.00753762
0.00753752
0.00753742
0.00753734
0.00753728
0.00753724
0.00753722
0.00682445
0.00682446
0.0068245
0.00682455
0.00682462
0.0068247
0.00682479
0.00682489
0.00682498
0.00682507
0.00682516
0.00682523
0.00682529
0.00682533
0.00682535
0.00682535
0.00682533
0.00682529
0.00682523
0.00682516
0.00682507
0.00682498
0.00682488
0.00682479
0.0068247
0.00682462
0.00682455
0.0068245
0.00682446
0.00682445
0.00623483
0.00623484
0.00623487
0.00623492
0.00623498
0.00623505
0.00623512
0.0062352
0.00623529
0.00623536
0.00623544
0.0062355
0.00623555
0.00623558
0.0062356
0.0062356
0.00623558
0.00623555
0.0062355
0.00623544
0.00623536
0.00623529
0.0062352
0.00623512
0.00623505
0.00623498
0.00623492
0.00623487
0.00623484
0.00623483
0.00573896
0.00573897
0.00573899
0.00573903
0.00573908
0.00573914
0.00573921
0.00573927
0.00573934
0.00573941
0.00573947
0.00573952
0.00573957
0.0057396
0.00573961
0.00573961
0.0057396
0.00573957
0.00573952
0.00573947
0.00573941
0.00573934
0.00573927
0.00573921
0.00573914
0.00573908
0.00573903
0.00573899
0.00573897
0.00573896
0.0053161
0.00531611
0.00531613
0.00531616
0.00531621
0.00531625
0.00531631
0.00531637
0.00531643
0.00531648
0.00531653
0.00531658
0.00531661
0.00531664
0.00531665
0.00531665
0.00531664
0.00531661
0.00531658
0.00531653
0.00531648
0.00531643
0.00531637
0.00531631
0.00531625
0.0053162
0.00531616
0.00531613
0.00531611
0.0053161
0.00495123
0.00495123
0.00495125
0.00495128
0.00495131
0.00495135
0.0049514
0.00495145
0.0049515
0.00495155
0.00495159
0.00495163
0.00495166
0.00495168
0.00495169
0.00495169
0.00495168
0.00495166
0.00495163
0.00495159
0.00495155
0.0049515
0.00495145
0.0049514
0.00495135
0.00495131
0.00495128
0.00495125
0.00495123
0.00495123
0.00463317
0.00463317
0.00463319
0.00463321
0.00463324
0.00463327
0.00463331
0.00463335
0.00463339
0.00463343
0.00463347
0.0046335
0.00463352
0.00463354
0.00463355
0.00463355
0.00463354
0.00463352
0.0046335
0.00463347
0.00463343
0.00463339
0.00463335
0.00463331
0.00463327
0.00463324
0.00463321
0.00463319
0.00463317
0.00463317
0.00435345
0.00435345
0.00435347
0.00435348
0.00435351
0.00435354
0.00435357
0.0043536
0.00435364
0.00435367
0.0043537
0.00435372
0.00435374
0.00435376
0.00435377
0.00435377
0.00435376
0.00435374
0.00435372
0.0043537
0.00435367
0.00435364
0.0043536
0.00435357
0.00435354
0.00435351
0.00435348
0.00435346
0.00435345
0.00435345
0.00410553
0.00410553
0.00410554
0.00410556
0.00410558
0.0041056
0.00410563
0.00410566
0.00410568
0.00410571
0.00410574
0.00410576
0.00410577
0.00410579
0.00410579
0.00410579
0.00410579
0.00410577
0.00410576
0.00410574
0.00410571
0.00410568
0.00410566
0.00410563
0.0041056
0.00410558
0.00410556
0.00410554
0.00410553
0.00410553
0.00388428
0.00388428
0.00388429
0.0038843
0.00388432
0.00388433
0.00388436
0.00388438
0.0038844
0.00388442
0.00388444
0.00388446
0.00388448
0.00388449
0.00388449
0.00388449
0.00388449
0.00388448
0.00388446
0.00388444
0.00388442
0.0038844
0.00388438
0.00388436
0.00388433
0.00388431
0.0038843
0.00388429
0.00388428
0.00388428
0.0036856
0.00368561
0.00368561
0.00368562
0.00368564
0.00368565
0.00368567
0.00368569
0.00368571
0.00368572
0.00368574
0.00368576
0.00368577
0.00368577
0.00368578
0.00368578
0.00368577
0.00368577
0.00368575
0.00368574
0.00368572
0.00368571
0.00368569
0.00368567
0.00368565
0.00368563
0.00368562
0.00368561
0.00368561
0.0036856
0.00350623
0.00350623
0.00350623
0.00350624
0.00350625
0.00350626
0.00350628
0.00350629
0.00350631
0.00350632
0.00350634
0.00350635
0.00350636
0.00350636
0.00350637
0.00350637
0.00350636
0.00350636
0.00350635
0.00350634
0.00350632
0.00350631
0.00350629
0.00350628
0.00350626
0.00350625
0.00350624
0.00350623
0.00350623
0.00350623
0.00334347
0.00334347
0.00334348
0.00334348
0.00334349
0.0033435
0.00334351
0.00334353
0.00334354
0.00334355
0.00334356
0.00334357
0.00334358
0.00334358
0.00334358
0.00334358
0.00334358
0.00334358
0.00334357
0.00334356
0.00334355
0.00334354
0.00334353
0.00334351
0.0033435
0.00334349
0.00334348
0.00334348
0.00334347
0.00334347
0.00319516
0.00319516
0.00319517
0.00319517
0.00319518
0.00319519
0.00319519
0.0031952
0.00319521
0.00319522
0.00319523
0.00319524
0.00319525
0.00319525
0.00319525
0.00319525
0.00319525
0.00319525
0.00319524
0.00319523
0.00319522
0.00319521
0.0031952
0.00319519
0.00319519
0.00319518
0.00319517
0.00319517
0.00319516
0.00319516
0.00305953
0.00305953
0.00305953
0.00305954
0.00305954
0.00305955
0.00305955
0.00305956
0.00305957
0.00305958
0.00305958
0.00305959
0.0030596
0.0030596
0.0030596
0.0030596
0.0030596
0.0030596
0.00305959
0.00305958
0.00305958
0.00305957
0.00305956
0.00305955
0.00305955
0.00305954
0.00305954
0.00305953
0.00305953
0.00305953
0.0029352
0.0029352
0.0029352
0.0029352
0.00293521
0.00293521
0.00293522
0.00293522
0.00293523
0.00293524
0.00293524
0.00293525
0.00293525
0.00293525
0.00293525
0.00293525
0.00293525
0.00293525
0.00293525
0.00293524
0.00293524
0.00293523
0.00293522
0.00293522
0.00293521
0.00293521
0.0029352
0.0029352
0.0029352
0.0029352
0.00282127
0.00282127
0.00282127
0.00282127
0.00282127
0.00282128
0.00282128
0.00282129
0.00282129
0.0028213
0.0028213
0.0028213
0.00282131
0.00282131
0.00282131
0.00282131
0.00282131
0.00282131
0.0028213
0.0028213
0.0028213
0.00282129
0.00282129
0.00282128
0.00282128
0.00282127
0.00282127
0.00282127
0.00282127
0.00282127
0.00271762
0.00271762
0.00271762
0.00271762
0.00271762
0.00271762
0.00271763
0.00271763
0.00271763
0.00271764
0.00271764
0.00271764
0.00271764
0.00271764
0.00271764
0.00271764
0.00271764
0.00271764
0.00271764
0.00271764
0.00271764
0.00271763
0.00271763
0.00271763
0.00271762
0.00271762
0.00271762
0.00271762
0.00271762
0.00271762
0.00262573
0.00262573
0.00262573
0.00262573
0.00262573
0.00262573
0.00262574
0.00262574
0.00262574
0.00262574
0.00262574
0.00262575
0.00262575
0.00262575
0.00262575
0.00262575
0.00262575
0.00262575
0.00262575
0.00262574
0.00262574
0.00262574
0.00262574
0.00262574
0.00262573
0.00262573
0.00262573
0.00262573
0.00262573
0.00262573
0.00255058
0.00255058
0.00255058
0.00255058
0.00255058
0.00255058
0.00255058
0.00255058
0.00255058
0.00255058
0.00255058
0.00255058
0.00255058
0.00255058
0.00255058
0.00255058
0.00255058
0.00255058
0.00255058
0.00255058
0.00255058
0.00255058
0.00255058
0.00255058
0.00255058
0.00255058
0.00255058
0.00255058
0.00255058
0.00255058
0.00250381
0.00250381
0.0025038
0.0025038
0.0025038
0.0025038
0.0025038
0.0025038
0.00250381
0.00250381
0.00250381
0.00250381
0.00250381
0.00250381
0.00250381
0.00250381
0.00250381
0.00250381
0.00250381
0.00250381
0.00250381
0.00250381
0.0025038
0.0025038
0.0025038
0.0025038
0.0025038
0.0025038
0.00250381
0.00250381
0.0726705
0.0726705
0.0726704
0.0726696
0.0726684
0.0726669
0.0726652
0.0726634
0.0726616
0.0726598
0.0726581
0.0726567
0.0726555
0.0726547
0.0726543
0.0726543
0.0726547
0.0726555
0.0726567
0.0726581
0.0726598
0.0726616
0.0726634
0.0726652
0.0726669
0.0726684
0.0726696
0.0726704
0.0726705
0.0726705
0.0449667
0.0449659
0.0449661
0.0449667
0.0449674
0.0449682
0.0449691
0.0449701
0.0449711
0.0449721