/*--------------------------------*- C++ -*----------------------------------*\
| =========                 |                                                 |
| \\      /  F ield         | OpenFOAM: The Open Source CFD Toolbox           |
|  \\    /   O peration     | Version:  2506                                  |
|   \\  /    A nd           | Website:  www.openfoam.com                      |
|    \\/     M anipulation  |                                                 |
\*---------------------------------------------------------------------------*/
FoamFile
{
    version     2.0;
    format      ascii;
    arch        "LSB;label=32;scalar=64";
    class       volScalarField;
    location    "90";
    object      p;
}
// * * * * * * * * * * * * * * * * * * * * * * * * * * * * * * * * * * * * * //

dimensions      [0 2 -2 0 0 0 0];

internalField   nonuniform List<scalar> 
144676
(
-0.213783
-0.213498
-0.213063
-0.212456
-0.211697
-0.210814
-0.209841
-0.208819
-0.207793
-0.206806
-0.205904
-0.205127
-0.20451
-0.204081
-0.203862
-0.203862
-0.204081
-0.204509
-0.205127
-0.205904
-0.206806
-0.207792
-0.208819
-0.20984
-0.210813
-0.211696
-0.212455
-0.213062
-0.213496
-0.213782
-0.197624
-0.197175
-0.196724
-0.196114
-0.195355
-0.194473
-0.193502
-0.192482
-0.191458
-0.190474
-0.189574
-0.188798
-0.188182
-0.187755
-0.187536
-0.187536
-0.187755
-0.188182
-0.188797
-0.189573
-0.190474
-0.191458
-0.192482
-0.193501
-0.194472
-0.195354
-0.196112
-0.196723
-0.197173
-0.197622
-0.159936
-0.159731
-0.159323
-0.158731
-0.157984
-0.157112
-0.156152
-0.155143
-0.154129
-0.153154
-0.152263
-0.151495
-0.150885
-0.150462
-0.150246
-0.150246
-0.150462
-0.150885
-0.151494
-0.152262
-0.153154
-0.154128
-0.155142
-0.156151
-0.157111
-0.157983
-0.158729
-0.159321
-0.15973
-0.159934
-0.132511
-0.132195
-0.131779
-0.131195
-0.130461
-0.129605
-0.128662
-0.127672
-0.126677
-0.12572
-0.124846
-0.124092
-0.123494
-0.123078
-0.122866
-0.122866
-0.123078
-0.123493
-0.124091
-0.124845
-0.12572
-0.126676
-0.127671
-0.128661
-0.129604
-0.13046
-0.131193
-0.131778
-0.132193
-0.132509
-0.109692
-0.109415
-0.109017
-0.108451
-0.107739
-0.106907
-0.10599
-0.105027
-0.10406
-0.10313
-0.102279
-0.101546
-0.100965
-0.100561
-0.100355
-0.100354
-0.100561
-0.100964
-0.101546
-0.102278
-0.103129
-0.104059
-0.105026
-0.105989
-0.106906
-0.107737
-0.10845
-0.109015
-0.109413
-0.10969
-0.0908119
-0.0905547
-0.0901726
-0.089628
-0.0889417
-0.0881406
-0.0872576
-0.08633
-0.085398
-0.0845024
-0.0836832
-0.0829776
-0.0824176
-0.0820291
-0.0818301
-0.0818299
-0.0820286
-0.0824169
-0.0829768
-0.0836824
-0.0845015
-0.0853969
-0.0863287
-0.0872561
-0.088139
-0.08894
-0.0896263
-0.0901707
-0.0905528
-0.0908099
-0.0749352
-0.0747002
-0.0743374
-0.0738186
-0.0731639
-0.0723996
-0.071557
-0.0706721
-0.0697829
-0.0689286
-0.0681473
-0.0674743
-0.0669403
-0.0665699
-0.0663802
-0.06638
-0.0665694
-0.0669397
-0.0674736
-0.0681465
-0.0689276
-0.0697816
-0.0706706
-0.0715553
-0.0723977
-0.073162
-0.0738166
-0.0743354
-0.0746981
-0.0749329
-0.0614517
-0.0612367
-0.0608949
-0.0604048
-0.059786
-0.0590634
-0.058267
-0.0574305
-0.0565901
-0.0557828
-0.0550446
-0.0544089
-0.0539045
-0.0535546
-0.0533755
-0.0533753
-0.0535543
-0.053904
-0.0544083
-0.0550439
-0.0557817
-0.0565886
-0.0574286
-0.0582649
-0.0590612
-0.0597838
-0.0604025
-0.0608925
-0.0612342
-0.0614491
-0.0498783
-0.0496823
-0.049363
-0.0489042
-0.0483245
-0.0476476
-0.0469015
-0.046118
-0.045331
-0.0445751
-0.0438841
-0.043289
-0.042817
-0.0424896
-0.0423219
-0.0423218
-0.0424893
-0.0428166
-0.0432885
-0.0438832
-0.0445738
-0.0453292
-0.0461157
-0.0468989
-0.0476449
-0.0483218
-0.0489014
-0.0493601
-0.0496794
-0.0498753
-0.0398434
-0.0396654
-0.0393695
-0.0389436
-0.0384053
-0.0377766
-0.0370838
-0.0363564
-0.0356259
-0.0349244
-0.0342832
-0.0337312
-0.0332934
-0.0329897
-0.0328343
-0.0328342
-0.0329895
-0.033293
-0.0337306
-0.0342822
-0.0349229
-0.0356238
-0.0363538
-0.0370808
-0.0377735
-0.0384021
-0.0389403
-0.0393661
-0.039662
-0.03984
-0.0310481
-0.0308872
-0.0306151
-0.030223
-0.0297274
-0.0291484
-0.0285105
-0.0278409
-0.0271686
-0.0265231
-0.0259333
-0.0254256
-0.0250229
-0.0247437
-0.0246008
-0.0246007
-0.0247434
-0.0250224
-0.0254247
-0.025932
-0.0265213
-0.0271662
-0.0278379
-0.0285072
-0.0291449
-0.0297237
-0.0302193
-0.0306112
-0.0308832
-0.0310441
-0.0232458
-0.0231013
-0.0228531
-0.022495
-0.0220422
-0.0215133
-0.0209308
-0.0203194
-0.0197056
-0.0191166
-0.0185784
-0.0181153
-0.017748
-0.0174934
-0.017363
-0.0173628
-0.0174929
-0.0177473
-0.0181142
-0.0185769
-0.0191145
-0.019703
-0.0203161
-0.0209272
-0.0215095
-0.0220381
-0.0224907
-0.0228487
-0.0230968
-0.0232413
-0.0162278
-0.0160988
-0.0158741
-0.0155495
-0.0151391
-0.0146598
-0.0141319
-0.0135779
-0.013022
-0.0124886
-0.0120014
-0.0115822
-0.0112498
-0.0110193
-0.0109012
-0.010901
-0.0110186
-0.0112487
-0.0115807
-0.0119995
-0.0124862
-0.0130191
-0.0135744
-0.014128
-0.0146556
-0.0151346
-0.0155449
-0.0158692
-0.0160937
-0.0162228
-0.00981268
-0.00969831
-0.00949636
-0.00920441
-0.00883512
-0.0084039
-0.00792901
-0.00743082
-0.00693101
-0.00645154
-0.00601365
-0.00563688
-0.00533818
-0.00513107
-0.00502494
-0.00502462
-0.0051302
-0.00533683
-0.00563505
-0.00601133
-0.00644872
-0.00692769
-0.00742704
-0.00792481
-0.00839933
-0.00883025
-0.00919932
-0.00949104
-0.00969278
-0.00980715
-0.00383894
-0.00373843
-0.00355824
-0.00329746
-0.00296751
-0.00258223
-0.00215798
-0.00171302
-0.00126672
-0.000838681
-0.000447825
-0.00011156
0.000155001
0.000339835
0.000434593
0.000434942
0.000340825
0.000156552
-0.000109458
-0.000445168
-0.000835488
-0.00126302
-0.00170884
-0.00215334
-0.00257717
-0.00296215
-0.00329186
-0.0035524
-0.00373244
-0.00383293
0.00184063
0.00192813
0.00208783
0.00231925
0.00261215
0.00295417
0.00333072
0.00372557
0.0041215
0.00450115
0.00484779
0.00514598
0.00538234
0.00554622
0.00563027
0.00563064
0.0055473
0.00538407
0.00514837
0.00485084
0.00450482
0.00412568
0.00373022
0.00333586
0.00295972
0.00261804
0.00232544
0.00209423
0.00193468
0.00184722
0.00736437
0.00743971
0.00758035
0.00778447
0.0080429
0.00834468
0.00867687
0.00902513
0.00937426
0.009709
0.0100146
0.0102775
0.0104858
0.0106303
0.0107044
0.0107048
0.0106315
0.0104878
0.0102802
0.0100181
0.00971319
0.00937895
0.00903027
0.00868247
0.0083507
0.00804933
0.00779123
0.00758735
0.00744689
0.00737161
0.0128667
0.0129307
0.0130538
0.0132328
0.0134595
0.0137243
0.0140157
0.0143212
0.0146274
0.014921
0.015189
0.0154195
0.0156021
0.0157288
0.0157938
0.0157943
0.0157301
0.0156043
0.0154225
0.0151929
0.0149256
0.0146325
0.0143268
0.0140218
0.0137308
0.0134665
0.0132401
0.0130614
0.0129386
0.0128747
0.0184841
0.0185373
0.0186444
0.0188005
0.0189984
0.0192296
0.019484
0.0197506
0.0200179
0.0202742
0.020508
0.0207092
0.0208685
0.020979
0.0210358
0.0210363
0.0209805
0.0208709
0.0207124
0.0205122
0.020279
0.0200234
0.0197567
0.0194906
0.0192367
0.019006
0.0188085
0.0186527
0.0185459
0.0184929
0.0243625
0.0244052
0.0244977
0.0246332
0.0248052
0.0250062
0.0252274
0.0254592
0.0256915
0.0259142
0.0261174
0.0262922
0.0264306
0.0265267
0.0265761
0.0265766
0.0265283
0.0264331
0.0262956
0.0261217
0.0259192
0.0256973
0.0254656
0.0252344
0.0250138
0.0248133
0.0246418
0.0245068
0.0244145
0.024372
0.0306676
0.0306999
0.0307793
0.0308964
0.0310453
0.0312195
0.0314111
0.0316119
0.0318132
0.0320061
0.032182
0.0323334
0.0324533
0.0325365
0.0325794
0.0325799
0.0325381
0.0324559
0.0323369
0.0321864
0.0320112
0.0318191
0.0316185
0.0314183
0.0312273
0.0310538
0.0309055
0.0307889
0.0307098
0.0306777
0.037601
0.0376222
0.0376898
0.0377906
0.0379192
0.0380697
0.0382354
0.0384089
0.0385829
0.0387497
0.0389018
0.0390326
0.0391363
0.0392082
0.0392453
0.0392458
0.0392098
0.0391389
0.0390362
0.0389063
0.038755
0.0385891
0.0384159
0.0382429
0.0380779
0.0379281
0.0378002
0.0376999
0.0376327
0.0376117
0.0454241
0.0454326
0.0454896
0.0455761
0.0456868
0.0458167
0.0459598
0.0461099
0.0462603
0.0464045
0.0465359
0.0466489
0.0467384
0.0468005
0.0468325
0.0468331
0.0468022
0.0467411
0.0466525
0.0465404
0.0464099
0.0462668
0.0461172
0.0459679
0.0458256
0.0456963
0.0455862
0.0455003
0.0454436
0.0454353
0.0544951
0.0544885
0.0545358
0.0546097
0.0547051
0.0548173
0.0549412
0.0550712
0.0552015
0.0553263
0.0554401
0.0555378
0.0556152
0.055669
0.0556968
0.0556975
0.0556708
0.055618
0.0555415
0.0554447
0.0553319
0.0552082
0.0550788
0.0549498
0.0548268
0.0547151
0.0546203
0.0545469
0.0545
0.0545069
0.0653277
0.0653025
0.0653411
0.0654042
0.0654866
0.065584
0.0656917
0.0658048
0.0659181
0.0660266
0.0661256
0.0662106
0.0662779
0.0663247
0.066349
0.0663496
0.0663266
0.0662807
0.0662143
0.0661302
0.0660324
0.0659248
0.0658125
0.0657006
0.0655937
0.065497
0.0654152
0.0653526
0.0653144
0.0653399
0.078677
0.0786282
0.0786593
0.0787135
0.0787851
0.0788703
0.0789646
0.0790637
0.0791631
0.0792582
0.079345
0.0794196
0.0794787
0.0795199
0.0795412
0.0795419
0.0795217
0.0794816
0.0794234
0.0793498
0.079264
0.0791698
0.0790715
0.0789734
0.07888
0.0787956
0.0787246
0.078671
0.0786404
0.0786896
0.0956317
0.095545
0.0955679
0.0956146
0.0956775
0.0957529
0.0958366
0.0959246
0.0960129
0.0960974
0.0961746
0.0962411
0.0962938
0.0963305
0.0963496
0.0963502
0.0963323
0.0962967
0.0962449
0.0961795
0.0961033
0.0960196
0.0959324
0.0958454
0.0957626
0.095688
0.0956258
0.0955796
0.0955572
0.0956444
0.117724
0.117647
0.117664
0.117704
0.11776
0.117828
0.117904
0.117984
0.118064
0.11814
0.11821
0.118271
0.118319
0.118352
0.11837
0.11837
0.118354
0.118322
0.118275
0.118215
0.118146
0.11807
0.117991
0.117913
0.117838
0.117771
0.117716
0.117676
0.117659
0.117737
0.149163
0.149286
0.149338
0.14938
0.149434
0.149497
0.149568
0.149642
0.149716
0.149788
0.149853
0.149909
0.149954
0.149986
0.150002
0.150002
0.149987
0.149957
0.149913
0.149858
0.149794
0.149723
0.14965
0.149577
0.149507
0.149445
0.149391
0.14935
0.149299
0.149176
0.193047
0.19247
0.192455
0.192473
0.192515
0.192572
0.192639
0.19271
0.192781
0.19285
0.192912
0.192967
0.19301
0.19304
0.193056
0.193056
0.193042
0.193013
0.192971
0.192917
0.192856
0.192788
0.192718
0.192648
0.192583
0.192526
0.192485
0.192467
0.192483
0.193061
-0.199152
-0.198878
-0.198456
-0.197834
-0.19705
-0.196132
-0.19512
-0.194056
-0.192986
-0.191957
-0.191016
-0.190204
-0.189559
-0.189112
-0.188882
-0.188882
-0.189112
-0.189559
-0.190204
-0.191015
-0.191957
-0.192986
-0.194055
-0.195119
-0.196131
-0.197049
-0.197833
-0.198455
-0.198877
-0.199151
-0.18087
-0.180592
-0.180174
-0.179548
-0.178762
-0.177844
-0.176833
-0.175769
-0.1747
-0.173672
-0.172731
-0.17192
-0.171275
-0.170828
-0.170599
-0.170599
-0.170828
-0.171275
-0.171919
-0.172731
-0.173672
-0.1747
-0.175769
-0.176832
-0.177844
-0.178761
-0.179547
-0.180172
-0.180591
-0.180869
-0.148071
-0.147976
-0.14758
-0.146974
-0.146201
-0.145294
-0.144292
-0.143239
-0.14218
-0.141162
-0.140229
-0.139426
-0.138788
-0.138345
-0.138118
-0.138118
-0.138345
-0.138787
-0.139425
-0.140229
-0.141161
-0.14218
-0.143239
-0.144291
-0.145293
-0.1462
-0.146973
-0.147579
-0.147975
-0.14807
-0.125067
-0.124836
-0.124429
-0.123827
-0.123065
-0.122174
-0.121191
-0.120157
-0.119118
-0.118119
-0.117204
-0.116415
-0.115789
-0.115354
-0.115132
-0.115132
-0.115354
-0.115788
-0.116415
-0.117203
-0.118118
-0.119117
-0.120157
-0.12119
-0.122173
-0.123064
-0.123826
-0.124427
-0.124834
-0.125065
-0.104326
-0.104144
-0.103756
-0.103175
-0.102436
-0.10157
-0.100615
-0.0996107
-0.0986007
-0.0976295
-0.0967407
-0.0959745
-0.0953662
-0.0949441
-0.0947279
-0.0947277
-0.0949437
-0.0953657
-0.0959739
-0.0967401
-0.0976289
-0.0985999
-0.0996098
-0.100614
-0.101569
-0.102434
-0.103173
-0.103755
-0.104142
-0.104324
-0.086919
-0.0867301
-0.0863525
-0.0857917
-0.08508
-0.0842468
-0.0833274
-0.0823608
-0.081389
-0.0804547
-0.0795996
-0.0788627
-0.0782777
-0.0778717
-0.0776637
-0.0776636
-0.0778712
-0.0782771
-0.0788621
-0.079599
-0.0804539
-0.0813881
-0.0823597
-0.083326
-0.0842453
-0.0850783
-0.0857898
-0.0863505
-0.0867281
-0.0869168
-0.0720255
-0.0718454
-0.0714845
-0.07095
-0.0702717
-0.0694776
-0.0686014
-0.0676803
-0.0667544
-0.0658643
-0.0650499
-0.0643481
-0.063791
-0.0634045
-0.0632065
-0.0632063
-0.063404
-0.0637905
-0.0643475
-0.0650492
-0.0658634
-0.0667532
-0.0676789
-0.0685996
-0.0694757
-0.0702697
-0.0709479
-0.0714823
-0.0718431
-0.0720231
-0.0592415
-0.0590697
-0.0587276
-0.0582226
-0.057582
-0.0568323
-0.0560052
-0.0551358
-0.054262
-0.0534222
-0.052654
-0.0519921
-0.0514667
-0.0511022
-0.0509155
-0.0509153
-0.0511018
-0.0514662
-0.0519915
-0.0526532
-0.0534211
-0.0542605
-0.0551339
-0.0560029
-0.05683
-0.0575796
-0.0582202
-0.058725
-0.0590671
-0.0592388
-0.0481785
-0.048017
-0.0476961
-0.0472235
-0.0466242
-0.0459228
-0.0451492
-0.0443362
-0.0435192
-0.0427342
-0.0420163
-0.0413978
-0.040907
-0.0405665
-0.0403921
-0.040392
-0.0405662
-0.0409066
-0.0413972
-0.0420153
-0.0427328
-0.0435173
-0.0443337
-0.0451464
-0.0459199
-0.0466213
-0.0472206
-0.0476931
-0.0480139
-0.0481755
-0.0385288
-0.0383783
-0.0380801
-0.0376417
-0.0370858
-0.0364355
-0.0357183
-0.0349649
-0.0342078
-0.0334806
-0.0328157
-0.032243
-0.0317887
-0.0314735
-0.0313121
-0.031312
-0.0314732
-0.0317882
-0.0322422
-0.0328145
-0.0334789
-0.0342055
-0.034962
-0.0357151
-0.0364322
-0.0370825
-0.0376383
-0.0380766
-0.0383748
-0.0385254
-0.0300322
-0.0298933
-0.0296186
-0.0292154
-0.0287042
-0.0281063
-0.0274471
-0.0267548
-0.0260593
-0.0253915
-0.0247809
-0.0242553
-0.0238383
-0.023549
-0.0234009
-0.0234007
-0.0235486
-0.0238376
-0.0242543
-0.0247795
-0.0253895
-0.0260567
-0.0267515
-0.0274436
-0.0281026
-0.0287004
-0.0292115
-0.0296147
-0.0298894
-0.0300283
-0.0224679
-0.0223407
-0.0220897
-0.0217219
-0.0212556
-0.0207104
-0.0201094
-0.0194784
-0.0188448
-0.0182365
-0.0176805
-0.0172019
-0.0168223
-0.016559
-0.0164241
-0.0164239
-0.0165584
-0.0168213
-0.0172006
-0.0176787
-0.0182341
-0.0188418
-0.0194749
-0.0201056
-0.0207064
-0.0212514
-0.0217176
-0.0220854
-0.0223362
-0.0224635
-0.0156439
-0.0155283
-0.0153009
-0.014968
-0.014546
-0.0140527
-0.013509
-0.0129384
-0.0123656
-0.0118158
-0.0113134
-0.010881
-0.0105381
-0.0103002
-0.0101783
-0.010178
-0.0102994
-0.0105368
-0.0108792
-0.0113111
-0.011813
-0.0123622
-0.0129346
-0.0135049
-0.0140483
-0.0145414
-0.0149633
-0.0152961
-0.0155234
-0.015639
-0.0093909
-0.00928664
-0.00908213
-0.00878295
-0.00840386
-0.00796079
-0.00747263
-0.00696039
-0.00644635
-0.00595309
-0.00550244
-0.00511457
-0.00480699
-0.00459366
-0.0044843
-0.00448395
-0.00459267
-0.00480542
-0.00511242
-0.00549972
-0.00594983
-0.00644266
-0.00695633
-0.00746824
-0.00795609
-0.00839896
-0.00877789
-0.00907689
-0.00928132
-0.00938557
-0.0035563
-0.00346289
-0.00328023
-0.00301327
-0.00267506
-0.00227985
-0.00184454
-0.00138788
-0.000929742
-0.000490203
-8.86984e-05
0.000256822
0.000530778
0.000720787
0.000818223
0.000818597
0.00072188
0.000532538
0.000259242
-8.56157e-05
-0.000486539
-0.000925645
-0.00138344
-0.00183976
-0.00227478
-0.00266975
-0.00300773
-0.0032745
-0.00345708
-0.00355046
0.0020002
0.00208345
0.00224558
0.00248225
0.00278205
0.00313229
0.00351798
0.00392246
0.00432816
0.00471732
0.00507276
0.00537857
0.00562101
0.00578916
0.0058754
0.00587581
0.00579035
0.00562297
0.00538129
0.00507623
0.00472141
0.00433268
0.00392731
0.00352314
0.00313774
0.0027878
0.00248829
0.00225182
0.00208983
0.00200666
0.00741085
0.00748475
0.00762782
0.0078364
0.00810054
0.00840906
0.00874871
0.00910484
0.00946198
0.00980453
0.0101173
0.0103864
0.0105997
0.0107476
0.0108235
0.010824
0.010749
0.0106019
0.0103895
0.0101212
0.009809
0.0094669
0.0091101
0.00875428
0.00841494
0.00810677
0.00784294
0.00763462
0.00749172
0.00741796
0.012804
0.0128694
0.012995
0.0131778
0.0134092
0.0136795
0.013977
0.0142889
0.0146016
0.0149015
0.0151754
0.0154109
0.0155975
0.0157269
0.0157934
0.0157939
0.0157284
0.0155999
0.0154141
0.0151794
0.0149063
0.0146069
0.0142946
0.0139831
0.0136859
0.013416
0.013185
0.0130024
0.012877
0.0128118
0.0183089
0.0183667
0.0184765
0.0186359
0.0188377
0.0190734
0.0193327
0.0196046
0.0198771
0.0201385
0.020377
0.0205821
0.0207446
0.0208573
0.0209153
0.0209159
0.020859
0.0207472
0.0205855
0.0203812
0.0201434
0.0198827
0.0196107
0.0193393
0.0190804
0.0188452
0.0186438
0.0184847
0.0183751
0.0183176
0.024062
0.0241132
0.0242089
0.0243475
0.0245228
0.0247274
0.0249525
0.0251885
0.025425
0.0256518
0.0258586
0.0260365
0.0261775
0.0262754
0.0263258
0.0263264
0.0262771
0.0261803
0.0260402
0.025863
0.0256568
0.0254308
0.0251949
0.0249595
0.0247348
0.0245307
0.024356
0.0242179
0.0241224
0.0240714
0.0302155
0.0302612
0.0303446
0.0304646
0.0306164
0.0307934
0.0309883
0.0311924
0.031397
0.031593
0.0317719
0.0319258
0.0320477
0.0321324
0.0321761
0.0321767
0.0321342
0.0320505
0.0319295
0.0317765
0.0315983
0.031403
0.031199
0.0309955
0.0308012
0.0306248
0.0304736
0.0303541
0.0302711
0.0302256
0.0369497
0.0369909
0.0370636
0.0371674
0.0372985
0.0374514
0.0376196
0.0377959
0.0379725
0.0381418
0.0382962
0.038429
0.0385343
0.0386073
0.038645
0.0386456
0.0386091
0.038537
0.0384327
0.0383008
0.0381472
0.0379788
0.0378029
0.0376273
0.0374598
0.0373075
0.037177
0.0370738
0.0370014
0.0369605
0.044492
0.0445296
0.0445934
0.0446831
0.0447962
0.0449282
0.0450734
0.0452256
0.0453781
0.0455242
0.0456575
0.045772
0.0458627
0.0459258
0.0459584
0.045959
0.0459276
0.0458656
0.0457758
0.0456621
0.0455298
0.0453846
0.045233
0.0450817
0.0449372
0.0448058
0.0446932
0.0446041
0.0445408
0.0445035
0.0531473
0.0531819
0.0532382
0.0533159
0.0534137
0.0535279
0.0536535
0.0537852
0.0539171
0.0540434
0.0541585
0.0542574
0.0543359
0.0543904
0.0544186
0.0544193
0.0543923
0.0543388
0.0542612
0.0541632
0.054049
0.0539237
0.0537928
0.0536621
0.0535373
0.0534238
0.0533266
0.0532494
0.0531936
0.0531593
0.0633458
0.063377
0.0634275
0.0634951
0.0635801
0.0636793
0.0637885
0.0639029
0.0640174
0.0641271
0.0642271
0.064313
0.0643811
0.0644285
0.0644531
0.0644537
0.0644303
0.0643839
0.0643167
0.0642318
0.0641327
0.064024
0.0639105
0.0637972
0.0636889
0.0635905
0.0635061
0.063439
0.0633891
0.0633583
0.075722
0.0757469
0.0757927
0.0758521
0.0759266
0.0760135
0.0761091
0.0762093
0.0763096
0.0764056
0.0764932
0.0765685
0.0766282
0.0766698
0.0766914
0.0766921
0.0766717
0.0766311
0.0765723
0.076498
0.0764114
0.0763162
0.076217
0.0761178
0.0760231
0.0759371
0.0758632
0.0758045
0.0757591
0.0757347
0.0912159
0.0912182
0.0912589
0.0913116
0.0913777
0.0914549
0.0915398
0.0916287
0.0917177
0.0918029
0.0918807
0.0919477
0.0920009
0.092038
0.0920573
0.0920579
0.0920398
0.0920038
0.0919517
0.0918857
0.0918088
0.0917244
0.0916364
0.0915485
0.0914646
0.0913883
0.0913229
0.0912709
0.0912306
0.0912288
0.111079
0.111023
0.111048
0.111093
0.111151
0.111221
0.111298
0.111378
0.111459
0.111536
0.111606
0.111667
0.111716
0.111749
0.111767
0.111767
0.111751
0.111718
0.111671
0.111611
0.111542
0.111465
0.111386
0.111307
0.111231
0.111162
0.111104
0.11106
0.111036
0.111092
0.136845
0.136994
0.137053
0.137101
0.137159
0.137225
0.137297
0.137371
0.137446
0.137518
0.137584
0.137641
0.137686
0.137717
0.137734
0.137734
0.137719
0.137689
0.137645
0.137589
0.137524
0.137453
0.137379
0.137306
0.137235
0.13717
0.137113
0.137066
0.137007
0.136858
0.173596
0.17307
0.173089
0.173119
0.173166
0.173227
0.173294
0.173366
0.173438
0.173507
0.17357
0.173625
0.173668
0.173699
0.173714
0.173715
0.1737
0.173671
0.173629
0.173575
0.173513
0.173445
0.173374
0.173304
0.173237
0.173178
0.173131
0.173101
0.173083
0.173609
-0.156249
-0.156127
-0.155704
-0.155043
-0.1542
-0.153208
-0.152113
-0.150959
-0.149798
-0.14868
-0.147656
-0.146772
-0.14607
-0.145583
-0.145333
-0.145333
-0.145583
-0.14607
-0.146772
-0.147656
-0.14868
-0.149798
-0.150959
-0.152113
-0.153208
-0.154199
-0.155042
-0.155703
-0.156126
-0.156248
-0.151744
-0.151501
-0.151062
-0.150395
-0.14955
-0.148558
-0.147463
-0.14631
-0.145149
-0.144031
-0.143007
-0.142124
-0.141421
-0.140934
-0.140684
-0.140684
-0.140934
-0.141421
-0.142124
-0.143007
-0.144031
-0.145149
-0.14631
-0.147463
-0.148558
-0.149549
-0.150394
-0.151062
-0.1515
-0.151743
-0.129489
-0.12937
-0.128937
-0.128287
-0.127454
-0.126475
-0.125392
-0.124251
-0.123103
-0.121997
-0.120984
-0.12011
-0.119415
-0.118933
-0.118686
-0.118686
-0.118933
-0.119415
-0.12011
-0.120984
-0.121997
-0.123103
-0.124251
-0.125391
-0.126474
-0.127454
-0.128286
-0.128936
-0.129369
-0.129488
-0.112817
-0.112568
-0.112127
-0.111481
-0.110661
-0.1097
-0.108639
-0.107521
-0.106396
-0.105313
-0.104321
-0.103465
-0.102785
-0.102312
-0.10207
-0.10207
-0.102312
-0.102784
-0.103465
-0.104321
-0.105313
-0.106396
-0.107521
-0.108638
-0.109699
-0.11066
-0.111479
-0.112126
-0.112567
-0.112816
-0.0956273
-0.0954313
-0.095012
-0.0943888
-0.0935955
-0.0926645
-0.0916354
-0.0905522
-0.0894619
-0.0884123
-0.0874508
-0.0866213
-0.0859622
-0.0855046
-0.0852702
-0.0852701
-0.0855044
-0.0859619
-0.086621
-0.0874506
-0.088412
-0.0894613
-0.0905516
-0.0916345
-0.0926633
-0.0935941
-0.0943872
-0.0950103
-0.0954294
-0.0956254
-0.0807029
-0.0804887
-0.0800797
-0.079479
-0.0787163
-0.0778223
-0.0768345
-0.075795
-0.0747489
-0.0737421
-0.0728199
-0.0720245
-0.0713926
-0.0709539
-0.0707291
-0.0707289
-0.0709535
-0.0713922
-0.0720242
-0.0728196
-0.0737416
-0.0747481
-0.075794
-0.0768332
-0.0778207
-0.0787146
-0.0794771
-0.0800777
-0.0804866
-0.0807007
-0.0674509
-0.0672473
-0.0668581
-0.0662871
-0.0655621
-0.0647124
-0.0637739
-0.0627864
-0.0617928
-0.0608368
-0.0599613
-0.0592063
-0.0586066
-0.0581903
-0.0579769
-0.0579768
-0.0581899
-0.0586062
-0.0592059
-0.0599607
-0.060836
-0.0617916
-0.0627849
-0.0637721
-0.0647105
-0.06556
-0.0662848
-0.0668558
-0.0672448
-0.0674484
-0.0558241
-0.055629
-0.0552613
-0.0547232
-0.0540404
-0.0532406
-0.0523574
-0.0514284
-0.0504938
-0.0495949
-0.0487719
-0.0480623
-0.0474988
-0.0471076
-0.0469072
-0.046907
-0.0471073
-0.0474983
-0.0480617
-0.0487711
-0.0495937
-0.0504922
-0.0514263
-0.052355
-0.0532381
-0.0540378
-0.0547205
-0.0552586
-0.0556262
-0.0558212
-0.0455972
-0.0454141
-0.0450704
-0.0445683
-0.0439313
-0.0431855
-0.0423621
-0.0414963
-0.0406255
-0.0397882
-0.0390219
-0.0383613
-0.0378368
-0.0374727
-0.0372862
-0.0372861
-0.0374724
-0.0378363
-0.0383605
-0.0390208
-0.0397867
-0.0406234
-0.0414937
-0.0423592
-0.0431825
-0.0439283
-0.0445652
-0.0450673
-0.045411
-0.0455941
-0.0365715
-0.0364015
-0.0360832
-0.0356188
-0.0350299
-0.0343406
-0.0335798
-0.0327801
-0.0319761
-0.0312033
-0.0304961
-0.0298867
-0.029403
-0.0290672
-0.0288952
-0.0288951
-0.0290668
-0.0294023
-0.0298857
-0.0304947
-0.0312013
-0.0319736
-0.0327771
-0.0335765
-0.0343371
-0.0350263
-0.0356152
-0.0360797
-0.036398
-0.036568
-0.0285533
-0.028397
-0.028105
-0.0276791
-0.0271393
-0.0265076
-0.0258108
-0.0250784
-0.0243425
-0.0236352
-0.0229884
-0.022431
-0.0219887
-0.0216817
-0.0215244
-0.0215243
-0.0216812
-0.0219878
-0.0224297
-0.0229866
-0.0236329
-0.0243395
-0.025075
-0.025807
-0.0265037
-0.0271353
-0.027675
-0.028101
-0.028393
-0.0285493
-0.0213649
-0.0212226
-0.0209569
-0.0205696
-0.0200788
-0.0195047
-0.0188715
-0.0182064
-0.0175382
-0.0168963
-0.0163094
-0.0158038
-0.0154025
-0.0151242
-0.0149815
-0.0149813
-0.0151234
-0.0154014
-0.0158021
-0.0163071
-0.0168935
-0.0175349
-0.0182027
-0.0188675
-0.0195004
-0.0200744
-0.0205652
-0.0209525
-0.0212182
-0.0213606
-0.0148436
-0.0147152
-0.0144753
-0.0141258
-0.013683
-0.0131653
-0.0125944
-0.011995
-0.0113931
-0.010815
-0.0102865
-0.0098313
-0.00947014
-0.00921956
-0.00909112
-0.0090908
-0.00921863
-0.00946862
-0.00982916
-0.0102837
-0.0108117
-0.0113894
-0.011991
-0.0125901
-0.0131607
-0.0136784
-0.0141211
-0.0144705
-0.0147104
-0.0148388
-0.00884008
-0.00872515
-0.00851022
-0.00819714
-0.00780061
-0.00733706
-0.0068262
-0.00628994
-0.00575155
-0.00523465
-0.00476217
-0.00435532
-0.00403257
-0.00380863
-0.00369381
-0.00369343
-0.00380753
-0.00403077
-0.00435283
-0.00475901
-0.00523093
-0.00574743
-0.00628554
-0.00682156
-0.00733224
-0.00779564
-0.008192
-0.00850499
-0.00871994
-0.00883485
-0.00321627
-0.00311423
-0.00292301
-0.0026445
-0.00229182
-0.00187965
-0.00142555
-0.000949027
-0.000470748
-1.166e-05
0.000407884
0.000769063
0.00105554
0.0012543
0.00135624
0.00135664
0.0012555
0.00105753
0.000771823
0.000411377
-7.57392e-06
-0.000466265
-0.000944275
-0.00142059
-0.00187452
-0.00228648
-0.00263893
-0.00291734
-0.00310853
-0.00321049
0.00215696
0.00224686
0.00241588
0.00266204
0.00297371
0.00333785
0.00373893
0.0041597
0.00458192
0.0049871
0.00535729
0.00567591
0.00592857
0.00610387
0.00619381
0.00619424
0.00610518
0.00593075
0.00567893
0.00536109
0.00499149
0.00458672
0.00416479
0.00374422
0.00334333
0.00297944
0.00266802
0.00242201
0.0022531
0.00216332
0.00740253
0.00748108
0.00762956
0.00784582
0.0081196
0.00843942
0.00879159
0.00916097
0.00953155
0.0098871
0.0102119
0.0104913
0.0107129
0.0108666
0.0109455
0.0109459
0.010868
0.0107152
0.0104945
0.0102159
0.00989172
0.00953663
0.0091664
0.00879727
0.00844533
0.00812579
0.00785228
0.00763621
0.00748789
0.00740947
0.0126401
0.0127081
0.0128377
0.0130267
0.0132659
0.0135453
0.0138529
0.0141755
0.014499
0.0148094
0.0150928
0.0153366
0.0155298
0.0156639
0.0157328
0.0157333
0.0156655
0.0155324
0.01534
0.015097
0.0148142
0.0145044
0.0141813
0.0138591
0.0135517
0.0132727
0.0130338
0.012845
0.0127156
0.0126477
0.0179895
0.0180478
0.0181605
0.0183247
0.0185327
0.0187757
0.0190431
0.0193235
0.0196047
0.0198744
0.0201205
0.0203321
0.0205
0.0206165
0.0206764
0.0206769
0.0206181
0.0205027
0.0203357
0.0201248
0.0198793
0.0196103
0.0193297
0.0190498
0.0187827
0.0185402
0.0183325
0.0181685
0.0180561
0.017998
0.0235757
0.0236249
0.0237225
0.0238648
0.0240449
0.0242553
0.0244869
0.0247296
0.024973
0.0252063
0.0254192
0.0256023
0.0257475
0.0258484
0.0259003
0.0259008
0.0258501
0.0257503
0.025606
0.0254236
0.0252114
0.0249788
0.0247361
0.0244939
0.0242628
0.0240529
0.0238732
0.0237313
0.0236341
0.0235849
0.0295339
0.0295749
0.029659
0.0297818
0.0299373
0.0301189
0.0303188
0.0305283
0.0307383
0.0309395
0.0311232
0.0312812
0.0314065
0.0314935
0.0315383
0.0315388
0.0314951
0.0314092
0.0312849
0.0311278
0.0309449
0.0307444
0.0305351
0.0303262
0.0301269
0.0299459
0.0297909
0.0296686
0.0295848
0.0295441
0.0360171
0.0360503
0.0361227
0.0362284
0.0363623
0.0365187
0.0366909
0.0368714
0.0370523
0.0372256
0.0373837
0.0375198
0.0376276
0.0377026
0.0377412
0.0377417
0.0377042
0.0376304
0.0375235
0.0373884
0.0372311
0.0370587
0.0368786
0.0366989
0.0365274
0.0363715
0.0362381
0.036133
0.036061
0.0360281
0.0432043
0.0432303
0.0432926
0.0433835
0.0434988
0.0436335
0.0437818
0.0439372
0.044093
0.0442422
0.0443783
0.0444954
0.0445882
0.0446527
0.044686
0.0446866
0.0446544
0.044591
0.0444991
0.044383
0.0442479
0.0440996
0.0439447
0.0437902
0.0436427
0.0435086
0.0433939
0.0433034
0.0432417
0.043216
0.0513107
0.0513305
0.0513843
0.0514627
0.0515622
0.0516784
0.0518064
0.0519405
0.0520748
0.0522035
0.0523209
0.0524218
0.0525018
0.0525574
0.0525862
0.0525867
0.0525591
0.0525045
0.0524255
0.0523255
0.0522092
0.0520814
0.0519481
0.051815
0.0516879
0.0515724
0.0514735
0.0513956
0.0513424
0.0513229
0.0605939
0.0606098
0.0606569
0.060725
0.0608114
0.0609122
0.0610231
0.0611394
0.0612558
0.0613673
0.0614689
0.0615563
0.0616256
0.0616739
0.0616988
0.0616994
0.0616756
0.0616284
0.0615601
0.0614736
0.0613729
0.0612624
0.061147
0.0610318
0.0609218
0.0608218
0.0607362
0.0606687
0.0606221
0.0606065
0.0713483
0.0713673
0.0714101
0.0714701
0.0715458
0.071634
0.0717311
0.0718327
0.0719344
0.0720317
0.0721206
0.072197
0.0722577
0.0722999
0.0723218
0.0723224
0.0723017
0.0722605
0.0722009
0.0721255
0.0720375
0.071941
0.0718402
0.0717397
0.0716437
0.0715564
0.0714815
0.0714221
0.0713797
0.0713611
0.0838544
0.0838937
0.0839366
0.0839913
0.0840591
0.0841376
0.0842236
0.0843136
0.0844037
0.08449
0.0845688
0.0846366
0.0846905
0.084728
0.0847475
0.0847481
0.0847297
0.0846933
0.0846406
0.0845738
0.084496
0.0844105
0.0843212
0.0842323
0.0841473
0.0840697
0.0840028
0.0839488
0.0839064
0.0838674
0.0982005
0.0982461
0.0982811
0.0983292
0.0983904
0.0984612
0.0985389
0.0986202
0.0987016
0.0987796
0.098851
0.0989124
0.0989613
0.0989953
0.099013
0.0990135
0.0989969
0.098964
0.0989164
0.0988561
0.0987857
0.0987085
0.098628
0.0985477
0.0984709
0.0984012
0.098341
0.0982935
0.0982591
0.0982138
0.113037
0.113328
0.113394
0.113447
0.113509
0.113576
0.113649
0.113724
0.1138
0.113873
0.113939
0.113996
0.114042
0.114073
0.11409
0.11409
0.114075
0.114044
0.114
0.113944
0.113879
0.113807
0.113732
0.113658
0.113586
0.11352
0.113459
0.113407
0.113341
0.113051
0.13039
0.130598
0.130674
0.13072
0.130776
0.13084
0.130909
0.130981
0.131054
0.131123
0.131187
0.131242
0.131286
0.131317
0.131332
0.131333
0.131318
0.131289
0.131246
0.131193
0.13113
0.131061
0.130989
0.130918
0.13085
0.130787
0.130732
0.130687
0.130611
0.130404
-0.118231
-0.118028
-0.117528
-0.116788
-0.115844
-0.114733
-0.113502
-0.112205
-0.110896
-0.109634
-0.108476
-0.107476
-0.10668
-0.106127
-0.105844
-0.105844
-0.106127
-0.10668
-0.107476
-0.108476
-0.109634
-0.110896
-0.112205
-0.113502
-0.114732
-0.115843
-0.116787
-0.117527
-0.118027
-0.11823
-0.123445
-0.123113
-0.1226
-0.121851
-0.120904
-0.119792
-0.118562
-0.117264
-0.115955
-0.114694
-0.113535
-0.112534
-0.111738
-0.111184
-0.1109
-0.110901
-0.111184
-0.111738
-0.112534
-0.113535
-0.114694
-0.115956
-0.117264
-0.118562
-0.119792
-0.120904
-0.121851
-0.1226
-0.123112
-0.123444
-0.108728
-0.108556
-0.108057
-0.107326
-0.106393
-0.105295
-0.104079
-0.102797
-0.101503
-0.100256
-0.0991115
-0.0981224
-0.0973355
-0.0967887
-0.0965086
-0.0965086
-0.0967888
-0.0973357
-0.0981226
-0.0991117
-0.100256
-0.101504
-0.102797
-0.104079
-0.105295
-0.106393
-0.107326
-0.108056
-0.108555
-0.108727
-0.0975221
-0.0972398
-0.0967405
-0.0960169
-0.0951002
-0.0940246
-0.0928348
-0.0915804
-0.0903156
-0.0890962
-0.0879772
-0.0870102
-0.0862411
-0.0857066
-0.0854327
-0.0854327
-0.0857067
-0.0862412
-0.0870104
-0.0879773
-0.0890962
-0.0903156
-0.0915802
-0.0928343
-0.094024
-0.0950993
-0.0960158
-0.0967393
-0.0972385
-0.0975207
-0.0841158
-0.0838947
-0.0834217
-0.0827262
-0.0818412
-0.0808015
-0.079651
-0.0784381
-0.0772153
-0.0760366
-0.0749551