/*--------------------------------*- C++ -*----------------------------------*\
| =========                 |                                                 |
| \\      /  F ield         | OpenFOAM: The Open Source CFD Toolbox           |
|  \\    /   O peration     | Version:  2506                                  |
|   \\  /    A nd           | Website:  www.openfoam.com                      |
|    \\/     M anipulation  |                                                 |
\*---------------------------------------------------------------------------*/
FoamFile
{
    version     2.0;
    format      ascii;
    arch        "LSB;label=32;scalar=64";
    class       volScalarField;
    location    "30";
    object      epsilon;
}
// * * * * * * * * * * * * * * * * * * * * * * * * * * * * * * * * * * * * * //

dimensions      [0 2 -3 0 0 0 0];

internalField   nonuniform List<scalar> 
144676
(
0.116219
0.116219
0.116219
0.116219
0.11622
0.11622
0.11622
0.11622
0.11622
0.116219
0.116219
0.116219
0.116219
0.116219
0.116219
0.116219
0.116219
0.116219
0.116219
0.116219
0.116219
0.116219
0.116219
0.116219
0.116219
0.116219
0.116219
0.11622
0.11622
0.116219
0.0471294
0.0471294
0.0471297
0.0471299
0.0471302
0.0471304
0.0471305
0.0471306
0.0471306
0.0471307
0.0471308
0.0471309
0.047131
0.047131
0.0471311
0.0471311
0.047131
0.047131
0.0471309
0.0471308
0.0471307
0.0471306
0.0471305
0.0471303
0.0471301
0.04713
0.0471298
0.0471297
0.0471296
0.0471295
0.0283391
0.0283391
0.0283392
0.0283393
0.0283395
0.0283396
0.0283397
0.0283398
0.0283398
0.0283399
0.02834
0.0283401
0.0283402
0.0283402
0.0283403
0.0283403
0.0283402
0.0283402
0.0283401
0.02834
0.0283399
0.0283398
0.0283397
0.0283396
0.0283395
0.0283394
0.0283393
0.0283392
0.0283392
0.0283391
0.0202999
0.0202999
0.0203
0.0203001
0.0203002
0.0203002
0.0203003
0.0203004
0.0203005
0.0203005
0.0203006
0.0203007
0.0203008
0.0203008
0.0203008
0.0203008
0.0203008
0.0203007
0.0203007
0.0203006
0.0203005
0.0203005
0.0203004
0.0203003
0.0203002
0.0203001
0.0203
0.0203
0.0202999
0.0202999
0.0158315
0.0158316
0.0158316
0.0158317
0.0158318
0.0158318
0.0158319
0.015832
0.015832
0.0158321
0.0158322
0.0158322
0.0158323
0.0158323
0.0158324
0.0158324
0.0158323
0.0158323
0.0158322
0.0158322
0.0158321
0.0158321
0.015832
0.0158319
0.0158318
0.0158318
0.0158317
0.0158316
0.0158316
0.0158315
0.0129805
0.0129805
0.0129806
0.0129806
0.0129807
0.0129807
0.0129808
0.0129809
0.0129809
0.012981
0.0129811
0.0129811
0.0129812
0.0129812
0.0129812
0.0129812
0.0129812
0.0129811
0.0129811
0.012981
0.012981
0.0129809
0.0129809
0.0129808
0.0129808
0.0129807
0.0129806
0.0129806
0.0129805
0.0129805
0.0110009
0.011001
0.011001
0.0110011
0.0110011
0.0110012
0.0110012
0.0110013
0.0110013
0.0110014
0.0110015
0.0110015
0.0110015
0.0110016
0.0110016
0.0110016
0.0110016
0.0110015
0.0110015
0.0110015
0.0110014
0.0110014
0.0110013
0.0110012
0.0110012
0.0110011
0.0110011
0.011001
0.011001
0.0110009
0.0095457
0.00954574
0.00954578
0.00954582
0.00954586
0.00954591
0.00954596
0.00954601
0.00954606
0.00954611
0.00954616
0.0095462
0.00954623
0.00954625
0.00954626
0.00954626
0.00954625
0.00954622
0.00954619
0.00954615
0.00954611
0.00954607
0.00954602
0.00954597
0.00954591
0.00954585
0.00954581
0.00954577
0.00954574
0.00954569
0.00843061
0.00843065
0.00843068
0.00843072
0.00843077
0.00843082
0.00843086
0.00843091
0.00843095
0.00843099
0.00843103
0.00843106
0.00843109
0.00843111
0.00843111
0.00843111
0.0084311
0.00843108
0.00843105
0.00843102
0.00843099
0.00843095
0.00843091
0.00843086
0.00843081
0.00843076
0.00843072
0.00843068
0.00843065
0.00843061
0.00754882
0.00754886
0.00754889
0.00754894
0.00754898
0.00754903
0.00754907
0.00754911
0.00754914
0.00754918
0.00754921
0.00754924
0.00754926
0.00754927
0.00754928
0.00754928
0.00754927
0.00754925
0.00754923
0.0075492
0.00754917
0.00754914
0.0075491
0.00754906
0.00754902
0.00754898
0.00754893
0.00754889
0.00754886
0.00754882
0.00683403
0.00683406
0.0068341
0.00683414
0.00683418
0.00683423
0.00683426
0.0068343
0.00683433
0.00683435
0.00683438
0.0068344
0.00683442
0.00683443
0.00683443
0.00683443
0.00683443
0.00683442
0.0068344
0.00683438
0.00683435
0.00683432
0.00683429
0.00683425
0.00683422
0.00683418
0.00683414
0.0068341
0.00683406
0.00683403
0.00624287
0.0062429
0.00624294
0.00624299
0.00624303
0.00624306
0.0062431
0.00624313
0.00624315
0.00624317
0.00624319
0.00624321
0.00624322
0.00624323
0.00624324
0.00624324
0.00624324
0.00624323
0.00624321
0.00624319
0.00624317
0.00624315
0.00624312
0.00624309
0.00624306
0.00624302
0.00624298
0.00624294
0.0062429
0.00624287
0.00574581
0.00574585
0.00574589
0.00574593
0.00574597
0.00574601
0.00574604
0.00574606
0.00574608
0.0057461
0.00574612
0.00574613
0.00574614
0.00574615
0.00574616
0.00574616
0.00574615
0.00574614
0.00574613
0.00574612
0.0057461
0.00574608
0.00574606
0.00574603
0.005746
0.00574597
0.00574593
0.00574589
0.00574585
0.00574581
0.00532204
0.00532208
0.00532212
0.00532217
0.00532221
0.00532224
0.00532227
0.00532229
0.0053223
0.00532232
0.00532233
0.00532235
0.00532235
0.00532236
0.00532236
0.00532236
0.00532236
0.00532236
0.00532235
0.00532234
0.00532232
0.00532231
0.00532229
0.00532226
0.00532223
0.0053222
0.00532216
0.00532212
0.00532208
0.00532204
0.00495645
0.00495649
0.00495654
0.00495659
0.00495663
0.00495666
0.00495668
0.0049567
0.00495672
0.00495673
0.00495674
0.00495675
0.00495676
0.00495676
0.00495676
0.00495676
0.00495676
0.00495676
0.00495675
0.00495674
0.00495673
0.00495672
0.0049567
0.00495668
0.00495665
0.00495662
0.00495658
0.00495654
0.00495649
0.00495645
0.00463783
0.00463788
0.00463793
0.00463798
0.00463802
0.00463805
0.00463807
0.00463809
0.0046381
0.00463811
0.00463812
0.00463813
0.00463813
0.00463814
0.00463814
0.00463814
0.00463814
0.00463813
0.00463813
0.00463812
0.00463811
0.0046381
0.00463808
0.00463807
0.00463804
0.00463801
0.00463797
0.00463793
0.00463788
0.00463783
0.00435768
0.00435772
0.00435778
0.00435783
0.00435787
0.0043579
0.00435792
0.00435794
0.00435795
0.00435796
0.00435796
0.00435797
0.00435797
0.00435797
0.00435798
0.00435798
0.00435798
0.00435797
0.00435797
0.00435796
0.00435795
0.00435795
0.00435793
0.00435792
0.0043579
0.00435787
0.00435782
0.00435778
0.00435772
0.00435767
0.00410941
0.00410946
0.00410952
0.00410957
0.00410961
0.00410964
0.00410966
0.00410968
0.00410969
0.0041097
0.0041097
0.00410971
0.00410971
0.00410971
0.00410971
0.00410971
0.00410971
0.00410971
0.0041097
0.0041097
0.00410969
0.00410969
0.00410968
0.00410966
0.00410964
0.00410961
0.00410957
0.00410952
0.00410946
0.00410941
0.00388789
0.00388794
0.003888
0.00388805
0.0038881
0.00388813
0.00388815
0.00388816
0.00388817
0.00388818
0.00388818
0.00388818
0.00388819
0.00388819
0.00388819
0.00388819
0.00388819
0.00388819
0.00388818
0.00388818
0.00388817
0.00388817
0.00388816
0.00388814
0.00388812
0.00388809
0.00388805
0.003888
0.00388794
0.00388789
0.00368901
0.00368906
0.00368912
0.00368917
0.00368922
0.00368925
0.00368927
0.00368928
0.00368929
0.0036893
0.0036893
0.0036893
0.0036893
0.0036893
0.00368931
0.00368931
0.00368931
0.0036893
0.0036893
0.0036893
0.00368929
0.00368929
0.00368928
0.00368927
0.00368925
0.00368922
0.00368917
0.00368912
0.00368906
0.003689
0.00350946
0.00350952
0.00350958
0.00350963
0.00350968
0.00350971
0.00350973
0.00350974
0.00350975
0.00350975
0.00350976
0.00350976
0.00350976
0.00350976
0.00350976
0.00350976
0.00350976
0.00350976
0.00350976
0.00350975
0.00350975
0.00350975
0.00350974
0.00350972
0.00350971
0.00350968
0.00350963
0.00350958
0.00350951
0.00350946
0.00334656
0.00334662
0.00334669
0.00334674
0.00334678
0.00334681
0.00334683
0.00334684
0.00334685
0.00334686
0.00334686
0.00334686
0.00334686
0.00334686
0.00334686
0.00334687
0.00334686
0.00334686
0.00334686
0.00334686
0.00334686
0.00334685
0.00334684
0.00334683
0.00334681
0.00334678
0.00334674
0.00334668
0.00334662
0.00334656
0.00319811
0.00319817
0.00319823
0.00319829
0.00319833
0.00319836
0.00319837
0.00319839
0.00319839
0.0031984
0.0031984
0.0031984
0.0031984
0.0031984
0.0031984
0.0031984
0.0031984
0.0031984
0.0031984
0.0031984
0.0031984
0.00319839
0.00319838
0.00319837
0.00319835
0.00319833
0.00319828
0.00319823
0.00319816
0.00319811
0.00306225
0.00306231
0.00306238
0.00306243
0.00306248
0.0030625
0.00306252
0.00306253
0.00306254
0.00306254
0.00306254
0.00306254
0.00306255
0.00306255
0.00306255
0.00306255
0.00306255
0.00306255
0.00306254
0.00306254
0.00306254
0.00306254
0.00306253
0.00306252
0.0030625
0.00306247
0.00306243
0.00306238
0.00306231
0.00306225
0.00293748
0.00293755
0.00293761
0.00293767
0.00293771
0.00293773
0.00293775
0.00293776
0.00293776
0.00293777
0.00293777
0.00293777
0.00293777
0.00293777
0.00293777
0.00293777
0.00293777
0.00293777
0.00293777
0.00293777
0.00293777
0.00293776
0.00293776
0.00293775
0.00293773
0.0029377
0.00293766
0.00293761
0.00293755
0.00293748
0.00282256
0.00282263
0.00282269
0.00282274
0.00282278
0.0028228
0.00282282
0.00282283
0.00282283
0.00282284
0.00282284
0.00282284
0.00282284
0.00282284
0.00282284
0.00282284
0.00282284
0.00282284
0.00282284
0.00282284
0.00282283
0.00282283
0.00282283
0.00282282
0.0028228
0.00282278
0.00282274
0.00282269
0.00282262
0.00282256
0.00271656
0.00271663
0.00271669
0.00271673
0.00271677
0.00271679
0.0027168
0.00271681
0.00271681
0.00271681
0.00271682
0.00271682
0.00271682
0.00271682
0.00271682
0.00271682
0.00271682
0.00271682
0.00271682
0.00271682
0.00271681
0.00271681
0.00271681
0.0027168
0.00271679
0.00271676
0.00271673
0.00271668
0.00271662
0.00271656
0.00261912
0.00261918
0.00261924
0.00261928
0.0026193
0.00261932
0.00261933
0.00261934
0.00261934
0.00261934
0.00261934
0.00261934
0.00261934
0.00261934
0.00261934
0.00261934
0.00261934
0.00261934
0.00261934
0.00261934
0.00261934
0.00261934
0.00261934
0.00261933
0.00261932
0.0026193
0.00261927
0.00261923
0.00261918
0.00261912
0.00253161
0.00253167
0.00253171
0.00253173
0.00253175
0.00253176
0.00253177
0.00253177
0.00253177
0.00253177
0.00253178
0.00253178
0.00253178
0.00253178
0.00253178
0.00253178
0.00253178
0.00253178
0.00253178
0.00253178
0.00253177
0.00253177
0.00253177
0.00253177
0.00253176
0.00253175
0.00253173
0.0025317
0.00253166
0.00253162
0.00246306
0.00246309
0.00246312
0.00246313
0.00246314
0.00246314
0.00246315
0.00246315
0.00246315
0.00246315
0.00246315
0.00246315
0.00246315
0.00246315
0.00246315
0.00246315
0.00246315
0.00246315
0.00246315
0.00246315
0.00246315
0.00246315
0.00246315
0.00246315
0.00246314
0.00246314
0.00246313
0.00246312
0.00246309
0.00246306
0.0963867
0.0963872
0.0963879
0.0963883
0.0963886
0.0963886
0.0963883
0.0963876
0.0963868
0.096386
0.0963854
0.0963849
0.0963847
0.0963847
0.0963848
0.096385
0.0963851
0.0963853
0.0963857
0.0963862
0.0963866
0.0963869
0.0963871
0.0963871
0.0963872
0.0963876
0.0963882
0.0963889
0.0963893
0.0963881
0.0468549
0.0468548
0.0468551
0.0468556
0.0468561
0.0468565
0.0468568
0.046857
0.0468573
0.0468575
0.0468578
0.0468581
0.0468583
0.0468584
0.0468585
0.0468585
0.0468584
0.0468583
0.0468581
0.0468579
0.0468577
0.0468574
0.046857
0.0468566
0.0468561
0.0468557
0.0468554
0.0468553
0.0468552
0.0468553
0.0284011
0.0284011
0.0284012
0.0284015
0.0284018
0.028402
0.0284023
0.0284025
0.0284027
0.028403
0.0284032
0.0284034
0.0284035
0.0284037
0.0284037
0.0284037
0.0284036
0.0284035
0.0284033
0.0284031
0.0284029
0.0284027
0.0284025
0.0284022
0.0284019
0.0284016
0.0284014
0.0284012
0.0284012
0.0284012
0.0203038
0.0203039
0.020304
0.0203042
0.0203044
0.0203046
0.0203048
0.020305
0.0203052
0.0203054
0.0203055
0.0203057
0.0203058
0.0203059
0.020306
0.020306
0.0203059
0.0203058
0.0203056
0.0203055
0.0203053
0.0203052
0.020305
0.0203047
0.0203045
0.0203043
0.0203041
0.020304
0.0203039
0.0203039
0.0158206
0.0158206
0.0158207
0.0158209
0.0158211
0.0158212
0.0158214
0.0158215
0.0158217
0.0158219
0.015822
0.0158222
0.0158223
0.0158224
0.0158224
0.0158224
0.0158223
0.0158223
0.0158221
0.015822
0.0158219
0.0158217
0.0158216
0.0158214
0.0158212
0.015821
0.0158208
0.0158207
0.0158206
0.0158206
0.0129692
0.0129692
0.0129693
0.0129694
0.0129696
0.0129697
0.0129698
0.01297
0.0129701
0.0129703
0.0129704
0.0129706
0.0129707
0.0129707
0.0129708
0.0129708
0.0129707
0.0129706
0.0129705
0.0129704
0.0129703
0.0129702
0.0129701
0.0129699
0.0129697
0.0129696
0.0129694
0.0129693
0.0129692
0.0129692
0.0109918
0.0109919
0.010992
0.0109921
0.0109922
0.0109923
0.0109925
0.0109926
0.0109927
0.0109929
0.010993
0.0109931
0.0109932
0.0109932
0.0109933
0.0109933
0.0109932
0.0109932
0.0109931
0.010993
0.0109929
0.0109928
0.0109927
0.0109925
0.0109923
0.0109922
0.0109921
0.010992
0.0109919
0.0109918
0.00953882
0.00953888
0.00953896
0.00953906
0.00953918
0.0095393
0.00953942
0.00953954
0.00953965
0.00953977
0.00953987
0.00953996
0.00954003
0.00954008
0.0095401
0.00954009
0.00954006
0.00954
0.00953993
0.00953986
0.00953977
0.00953967
0.00953956
0.00953942
0.00953929
0.00953916
0.00953905
0.00953894
0.00953886
0.0095388
0.00842548
0.00842554
0.00842563
0.00842574
0.00842586
0.00842598
0.00842609
0.00842619
0.00842629
0.00842639
0.00842647
0.00842654
0.0084266
0.00842664
0.00842666
0.00842665
0.00842662
0.00842658
0.00842652
0.00842646
0.00842638
0.00842629
0.00842619
0.00842608
0.00842596
0.00842585
0.00842573
0.00842562
0.00842553
0.00842546
0.007545
0.00754507
0.00754517
0.00754529
0.00754541
0.00754552
0.00754562
0.00754571
0.0075458
0.00754588
0.00754595
0.007546
0.00754605
0.00754608
0.0075461
0.00754609
0.00754607
0.00754604
0.00754599
0.00754594
0.00754587
0.00754579
0.0075457
0.00754561
0.00754551
0.0075454
0.00754528
0.00754516
0.00754506
0.00754499
0.00683116
0.00683124
0.00683135
0.00683148
0.0068316
0.00683171
0.0068318
0.00683188
0.00683195
0.00683201
0.00683207
0.00683212
0.00683215
0.00683218
0.0068322
0.00683219
0.00683218
0.00683215
0.00683211
0.00683206
0.00683201
0.00683194
0.00683187
0.00683179
0.0068317
0.00683159
0.00683147
0.00683135
0.00683124
0.00683116
0.0062407
0.00624079
0.00624091
0.00624105
0.00624117
0.00624127
0.00624135
0.00624142
0.00624148
0.00624154
0.00624158
0.00624162
0.00624165
0.00624167
0.00624169
0.00624169
0.00624167
0.00624165
0.00624162
0.00624158
0.00624154
0.00624148
0.00624142
0.00624135
0.00624126
0.00624116
0.00624104
0.0062409
0.00624078
0.00624069
0.00574415
0.00574424
0.00574438
0.00574452
0.00574465
0.00574475
0.00574482
0.00574488
0.00574494
0.00574498
0.00574502
0.00574505
0.00574508
0.00574509
0.0057451
0.0057451
0.00574509
0.00574507
0.00574505
0.00574502
0.00574498
0.00574494
0.00574489
0.00574482
0.00574474
0.00574464
0.00574452
0.00574437
0.00574423
0.00574413
0.00532073
0.00532084
0.00532099
0.00532114
0.00532127
0.00532137
0.00532144
0.00532149
0.00532154
0.00532158
0.00532161
0.00532163
0.00532165
0.00532167
0.00532167
0.00532167
0.00532166
0.00532165
0.00532163
0.00532161
0.00532158
0.00532154
0.0053215
0.00532144
0.00532136
0.00532126
0.00532114
0.00532098
0.00532083
0.00532072
0.0049554
0.00495552
0.00495568
0.00495585
0.00495598
0.00495607
0.00495614
0.00495619
0.00495623
0.00495626
0.00495629
0.00495631
0.00495632
0.00495633
0.00495634
0.00495634
0.00495633
0.00495632
0.00495631
0.00495629
0.00495626
0.00495623
0.00495619
0.00495614
0.00495607
0.00495597
0.00495584
0.00495568
0.00495551
0.00495538
0.00463696
0.0046371
0.00463727
0.00463744
0.00463758
0.00463768
0.00463774
0.00463779
0.00463782
0.00463785
0.00463787
0.00463788
0.00463789
0.0046379
0.0046379
0.0046379
0.0046379
0.00463789
0.00463788
0.00463787
0.00463785
0.00463782
0.00463779
0.00463774
0.00463767
0.00463757
0.00463744
0.00463727
0.00463709
0.00463695
0.00435694
0.00435708
0.00435727
0.00435745
0.00435759
0.00435769
0.00435776
0.0043578
0.00435783
0.00435785
0.00435786
0.00435788
0.00435788
0.00435789
0.00435789
0.00435789
0.00435789
0.00435788
0.00435788
0.00435786
0.00435785
0.00435782
0.00435779
0.00435775
0.00435768
0.00435758
0.00435744
0.00435727
0.00435707
0.00435692
0.00410877
0.00410893
0.00410913
0.00410932
0.00410946
0.00410956
0.00410963
0.00410967
0.00410969
0.00410971
0.00410972
0.00410973
0.00410974
0.00410974
0.00410974
0.00410975
0.00410974
0.00410974
0.00410973
0.00410972
0.00410971
0.00410969
0.00410966
0.00410962
0.00410955
0.00410945
0.00410931
0.00410912
0.00410892
0.00410876
0.00388733
0.0038875
0.00388771
0.0038879
0.00388805
0.00388815
0.00388821
0.00388825
0.00388828
0.00388829
0.0038883
0.00388831
0.00388831
0.00388832
0.00388832
0.00388832
0.00388832
0.00388831
0.00388831
0.0038883
0.00388829
0.00388827
0.00388825
0.00388821
0.00388814
0.00388804
0.00388789
0.0038877
0.00388749
0.00388732
0.00368852
0.0036887
0.00368892
0.00368911
0.00368926
0.00368936
0.00368943
0.00368946
0.00368949
0.0036895
0.00368951
0.00368951
0.00368952
0.00368952
0.00368952
0.00368952
0.00368952
0.00368952
0.00368951
0.00368951
0.0036895
0.00368948
0.00368946
0.00368942
0.00368935
0.00368925
0.00368911
0.00368891
0.0036887
0.00368852
0.00350906
0.00350925
0.00350947
0.00350966
0.00350981
0.00350991
0.00350997
0.00351001
0.00351003
0.00351004
0.00351005
0.00351005
0.00351006
0.00351006
0.00351006
0.00351006
0.00351006
0.00351006
0.00351006
0.00351005
0.00351004
0.00351003
0.00351001
0.00350997
0.00350991
0.00350981
0.00350966
0.00350946
0.00350924
0.00350906
0.00334625
0.00334645
0.00334668
0.00334687
0.00334702
0.00334712
0.00334718
0.00334721
0.00334723
0.00334724
0.00334725
0.00334725
0.00334726
0.00334726
0.00334726
0.00334726
0.00334726
0.00334726
0.00334725
0.00334725
0.00334724
0.00334723
0.00334721
0.00334717
0.00334711
0.00334701
0.00334687
0.00334667
0.00334645
0.00334625
0.00319791
0.00319812
0.00319834
0.00319854
0.00319868
0.00319878
0.00319884
0.00319887
0.00319889
0.0031989
0.0031989
0.00319891
0.00319891
0.00319891
0.00319891
0.00319891
0.00319891
0.00319891
0.00319891
0.0031989
0.0031989
0.00319889
0.00319887
0.00319883
0.00319877
0.00319867
0.00319853
0.00319834
0.00319811
0.00319791
0.00306221
0.00306243
0.00306266
0.00306285
0.00306299
0.00306308
0.00306314
0.00306317
0.00306319
0.0030632
0.0030632
0.0030632
0.00306321
0.00306321
0.00306321
0.00306321
0.0030632
0.0030632
0.0030632
0.0030632
0.00306319
0.00306318
0.00306317
0.00306313
0.00306307
0.00306298
0.00306284
0.00306265
0.00306242
0.00306221
0.0029377
0.00293792
0.00293815
0.00293833
0.00293847
0.00293856
0.00293861
0.00293864
0.00293865
0.00293866
0.00293867
0.00293867
0.00293867
0.00293867
0.00293867
0.00293867
0.00293867
0.00293867
0.00293867
0.00293867
0.00293866
0.00293865
0.00293864
0.0029386
0.00293855
0.00293846
0.00293832
0.00293814
0.00293791
0.00293769
0.00282325
0.00282349
0.00282371
0.00282388
0.00282401
0.00282409
0.00282414
0.00282417
0.00282418
0.00282419
0.00282419
0.00282419
0.00282419
0.0028242
0.0028242
0.0028242
0.00282419
0.00282419
0.00282419
0.00282419
0.00282419
0.00282418
0.00282417
0.00282414
0.00282409
0.002824
0.00282387
0.00282369
0.00282348
0.00282325
0.00271833
0.00271856
0.00271877
0.00271893
0.00271905
0.00271912
0.00271916
0.00271918
0.00271919
0.0027192
0.0027192
0.0027192
0.0027192
0.0027192
0.0027192
0.0027192
0.0027192
0.0027192
0.0027192
0.0027192
0.0027192
0.00271919
0.00271918
0.00271916
0.00271911
0.00271904
0.00271892
0.00271876
0.00271855
0.00271833
0.00262353
0.00262375
0.00262393
0.00262407
0.00262416
0.00262422
0.00262425
0.00262426
0.00262427
0.00262428
0.00262428
0.00262428
0.00262428
0.00262428
0.00262428
0.00262428
0.00262428
0.00262428
0.00262428
0.00262428
0.00262428
0.00262427
0.00262426
0.00262425
0.00262421
0.00262415
0.00262406
0.00262392
0.00262374
0.00262353
0.00254252
0.0025427
0.00254285
0.00254295
0.00254301
0.00254305
0.00254306
0.00254307
0.00254308
0.00254308
0.00254308
0.00254308
0.00254308
0.00254308
0.00254309
0.00254309
0.00254309
0.00254308
0.00254308
0.00254308
0.00254308
0.00254308
0.00254307
0.00254306
0.00254304
0.002543
0.00254294
0.00254284
0.0025427
0.00254252
0.00248737
0.00248751
0.00248761
0.00248767
0.0024877
0.00248772
0.00248773
0.00248773
0.00248774
0.00248774
0.00248774
0.00248774
0.00248774
0.00248774
0.00248774
0.00248774
0.00248774
0.00248774
0.00248774
0.00248774
0.00248774
0.00248773
0.00248773
0.00248773
0.00248772
0.0024877
0.00248766
0.0024876
0.00248751
0.00248738
0.0825589
0.0825591
0.0825597
0.0825598
0.0825596
0.082559
0.0825581
0.0825568
0.0825555
0.0825543
0.0825532
0.0825523
0.0825516
0.0825512
0.082551
0.082551
0.0825513
0.0825518
0.0825527
0.0825538
0.0825548
0.0825557
0.0825564
0.0825569
0.0825577
0.0825587
0.0825599
0.0825609
0.0825611
0.0825604
0.0460703
0.0460698
0.0460702
0.0460708
0.0460715
0.0460721
0.0460727
0.0460733
0.046074
0.0460746
0.0460753
0.0460757
0.0460761
0.0460763
0.0460765
0.0460764
0.0460763
0.046076
0.0460757
0.0460753
0.0460748
0.0460742
0.0460734
0.0460726
0.0460718
0.0460712
0.0460707
0.0460703
0.0460702
0.0460707
0.0284179
0.0284178
0.0284179
0.0284183
0.0284188
0.0284193
0.0284197
0.0284202
0.0284207
0.0284212
0.0284217
0.028422
0.0284223
0.0284225
0.0284226
0.0284226
0.0284225
0.0284222
0.0284219
0.0284216
0.0284212
0.0284207
0.0284202
0.0284197
0.0284191
0.0284186
0.0284182
0.0284179
0.0284178
0.0284179
0.0203151
0.0203152
0.0203153
0.0203156
0.020316
0.0203164
0.0203167
0.0203171
0.0203175
0.0203179
0.0203182
0.0203185
0.0203187
0.0203189
0.020319
0.020319
0.0203189
0.0203187
0.0203184
0.0203182
0.0203179
0.0203175
0.0203171
0.0203167
0.0203163
0.0203159
0.0203155
0.0203153
0.0203151
0.0203151
0.0158162
0.0158163
0.0158164
0.0158167
0.015817
0.0158173
0.0158176
0.0158179
0.0158182
0.0158185
0.0158188
0.015819
0.0158192
0.0158194
0.0158194
0.0158194
0.0158194
0.0158192
0.015819
0.0158188
0.0158185
0.0158183
0.0158179
0.0158176
0.0158173
0.0158169
0.0158166
0.0158163
0.0158162
0.0158162
0.0129615
0.0129615
0.0129617
0.0129619
0.0129622
0.0129624
0.0129627
0.012963
0.0129633
0.0129635
0.0129638
0.012964
0.0129641
0.0129643
0.0129643
0.0129643
0.0129642
0.0129641
0.0129639
0.0129638
0.0129636
0.0129633
0.012963
0.0129627
0.0129624
0.0129621
0.0129619
0.0129616
0.0129615
0.0129614
0.0109847
0.0109848
0.010985
0.0109852
0.0109855
0.0109857
0.0109859
0.0109862
0.0109864
0.0109866
0.0109868
0.010987
0.0109872
0.0109873
0.0109873
0.0109873
0.0109872
0.0109871
0.010987
0.0109868
0.0109867
0.0109865
0.0109862
0.010986
0.0109857
0.0109854
0.0109852
0.0109849
0.0109848
0.0109847
0.00953309
0.00953319
0.00953337
0.0095336
0.00953385
0.00953408
0.0095343
0.00953452
0.00953472
0.00953491
0.00953508
0.00953523
0.00953535
0.00953543
0.00953547
0.00953546
0.0095354
0.00953532
0.00953521
0.00953508
0.00953492
0.00953474
0.00953453
0.0095343
0.00953406
0.00953383
0.00953358
0.00953334
0.00953316
0.00953305
0.00842105
0.00842117
0.00842138
0.00842164
0.00842189
0.00842211
0.00842232
0.00842251
0.00842268
0.00842284
0.00842298
0.0084231
0.0084232
0.00842326
0.00842329
0.00842329
0.00842324
0.00842317
0.00842308
0.00842297
0.00842283
0.00842268
0.0084225
0.0084223
0.00842209
0.00842187
0.00842162
0.00842136
0.00842115
0.00842102
0.0075416
0.00754175
0.007542
0.00754228
0.00754254
0.00754276
0.00754294
0.00754311
0.00754325
0.00754339
0.0075435
0.0075436
0.00754368
0.00754373
0.00754376
0.00754376
0.00754372
0.00754367
0.00754359
0.00754349
0.00754338
0.00754324
0.00754309
0.00754293
0.00754274
0.00754252
0.00754227
0.00754199
0.00754174
0.00754158
0.00682852
0.00682871
0.00682899
0.0068293
0.00682956
0.00682978
0.00682995
0.0068301
0.00683022
0.00683033
0.00683043
0.00683051
0.00683057
0.00683062
0.00683064
0.00683064
0.00683061
0.00683057
0.0068305
0.00683042
0.00683033
0.00683021
0.00683009
0.00682994
0.00682977
0.00682955
0.00682928
0.00682898
0.0068287
0.00682851
0.00623862
0.00623884
0.00623916
0.00623948
0.00623976
0.00623997
0.00624013
0.00624026
0.00624036
0.00624045
0.00624053
0.0062406
0.00624065
0.00624069
0.00624071
0.00624071
0.00624069
0.00624065
0.0062406
0.00624053
0.00624045
0.00624036
0.00624026
0.00624012
0.00623996
0.00623974
0.00623946
0.00623914
0.00623882
0.0062386
0.00574246
0.00574271
0.00574306
0.00574341
0.00574369
0.0057439
0.00574406
0.00574417
0.00574427
0.00574434
0.00574441
0.00574446
0.0057445
0.00574453
0.00574455
0.00574455
0.00574453
0.0057445
0.00574446
0.00574441
0.00574435
0.00574427
0.00574418
0.00574406
0.00574389
0.00574368
0.00574339
0.00574304
0.00574269
0.00574244
0.00531934
0.00531962
0.00532
0.00532037
0.00532066
0.00532087
0.00532102
0.00532112
0.00532121
0.00532127
0.00532133
0.00532137
0.0053214
0.00532142
0.00532143
0.00532143
0.00532142
0.0053214
0.00532136
0.00532132
0.00532127
0.00532121
0.00532113
0.00532102
0.00532086
0.00532065
0.00532035
0.00531998
0.00531959
0.00531931
0.00495422
0.00495453
0.00495494
0.00495533
0.00495563
0.00495584
0.00495599
0.00495609
0.00495616
0.00495621
0.00495626
0.00495629
0.00495631
0.00495633
0.00495634
0.00495634
0.00495633
0.00495631
0.00495629
0.00495625
0.00495621
0.00495616
0.00495609
0.00495598
0.00495584
0.00495562
0.00495531
0.00495492
0.0049545
0.00495419
0.00463596
0.00463629
0.00463673
0.00463714
0.00463745
0.00463766
0.00463781
0.0046379
0.00463796
0.00463801
0.00463804
0.00463807
0.00463808
0.0046381
0.0046381
0.0046381
0.0046381
0.00463808
0.00463807
0.00463804
0.00463801
0.00463796
0.0046379
0.0046378
0.00463766
0.00463744
0.00463712
0.00463671
0.00463627
0.00463593
0.00435609
0.00435645
0.00435691
0.00435733
0.00435765
0.00435787
0.00435801
0.0043581
0.00435815
0.00435819
0.00435822
0.00435824
0.00435825
0.00435826
0.00435827
0.00435827
0.00435827
0.00435826
0.00435824
0.00435822
0.00435819
0.00435815
0.00435809
0.004358
0.00435786
0.00435764
0.00435731
0.00435689
0.00435642
0.00435606
0.00410808
0.00410846
0.00410894
0.00410937
0.0041097
0.00410992
0.00411006
0.00411015
0.0041102
0.00411023
0.00411026
0.00411027
0.00411028
0.00411029
0.00411029
0.0041103
0.00411029
0.00411028
0.00411027
0.00411025
0.00411023
0.0041102
0.00411015
0.00411006
0.00410991
0.00410969
0.00410936
0.00410892
0.00410844
0.00410806
0.00388681
0.00388722
0.00388771
0.00388815
0.00388848
0.0038887
0.00388884
0.00388892
0.00388897
0.003889
0.00388902
0.00388903
0.00388904
0.00388904
0.00388905
0.00388905
0.00388905
0.00388904
0.00388903
0.00388902
0.003889
0.00388897
0.00388892
0.00388883
0.00388869
0.00388846
0.00388813
0.00388769
0.0038872
0.00388679
0.0036882
0.00368863
0.00368913
0.00368957
0.0036899
0.00369012
0.00369026
0.00369034
0.00369038
0.00369041
0.00369042
0.00369043
0.00369044
0.00369044
0.00369045
0.00369045
0.00369045
0.00369044
0.00369043
0.00369042
0.00369041
0.00369038
0.00369033
0.00369025
0.00369011
0.00368989
0.00368955
0.00368911
0.00368861
0.00368819
0.00350897
0.00350942
0.00350992
0.00351036
0.00351069
0.00351091
0.00351104
0.00351112
0.00351116
0.00351118
0.00351119
0.0035112
0.00351121
0.00351121
0.00351121
0.00351121
0.00351121
0.00351121
0.0035112
0.00351119
0.00351118
0.00351116
0.00351111
0.00351103
0.0035109
0.00351068
0.00351035
0.0035099
0.0035094
0.00350896
0.00334645
0.00334691
0.00334742
0.00334785
0.00334817
0.00334839
0.00334852
0.00334859
0.00334863
0.00334865
0.00334866
0.00334867
0.00334867
0.00334867
0.00334868
0.00334868
0.00334867
0.00334867
0.00334867
0.00334866
0.00334865
0.00334863
0.00334858
0.00334851
0.00334838
0.00334816
0.00334783
0.0033474
0.00334689
0.00334643
0.00319843
0.00319891
0.00319942
0.00319985
0.00320017
0.00320037
0.0032005
0.00320057
0.00320061
0.00320063
0.00320063
0.00320064
0.00320064
0.00320064
0.00320064
0.00320064
0.00320064
0.00320064
0.00320064
0.00320063
0.00320062
0.0032006
0.00320056
0.00320049
0.00320036
0.00320015
0.00319983
0.0031994
0.00319889
0.00319842
0.00306315
0.00306365
0.00306415
0.00306457
0.00306488
0.00306508
0.0030652
0.00306526
0.0030653
0.00306532
0.00306532
0.00306533
0.00306533
0.00306533
0.00306533
0.00306533
0.00306533
0.00306533
0.00306533
0.00306532
0.00306531
0.0030653
0.00306526
0.00306519
0.00306507
0.00306486
0.00306455
0.00306413
0.00306362
0.00306314
0.00293919
0.0029397
0.00294021
0.00294061
0.00294091
0.0029411
0.00294121
0.00294127
0.0029413
0.00294131
0.00294132
0.00294133
0.00294133
0.00294133
0.00294133
0.00294133
0.00294132
0.00294132
0.00294132
0.00294132
0.00294131
0.0029413
0.00294126
0.0029412
0.00294108
0.00294089
0.00294059
0.00294018
0.00293968
0.00293918
0.00282562
0.00282615
0.00282664
0.00282703
0.0028273
0.00282747
0.00282757
0.00282763
0.00282765
0.00282767
0.00282767
0.00282767
0.00282767
0.00282767
0.00282767
0.00282767
0.00282767
0.00282767
0.00282767
0.00282767
0.00282766
0.00282765
0.00282762
0.00282756
0.00282746
0.00282728
0.002827
0.00282661
0.00282612
0.00282562
0.00272229
0.00272282
0.00272328
0.00272363
0.00272387
0.00272402
0.00272411
0.00272415
0.00272417
0.00272418
0.00272419
0.00272419
0.00272419
0.00272419
0.00272419
0.00272419
0.00272419
0.00272419
0.00272419
0.00272419
0.00272418
0.00272417
0.00272415
0.0027241
0.00272401
0.00272385
0.00272361
0.00272325
0.00272279
0.00272229
0.00263065
0.00263115
0.00263155
0.00263185
0.00263204
0.00263216
0.00263222
0.00263226
0.00263227
0.00263228
0.00263228
0.00263228
0.00263228
0.00263228
0.00263228
0.00263228
0.00263228
0.00263228
0.00263228
0.00263228
0.00263228
0.00263227
0.00263225
0.00263222
0.00263215
0.00263203
0.00263183
0.00263153
0.00263112
0.00263065
0.00255563
0.00255606
0.00255638
0.0025566
0.00255673
0.00255681
0.00255685
0.00255686
0.00255687
0.00255688
0.00255688
0.00255688
0.00255688
0.00255688
0.00255688
0.00255688
0.00255688
0.00255688
0.00255688
0.00255688
0.00255688
0.00255687
0.00255686
0.00255684
0.0025568
0.00255672
0.00255657
0.00255635
0.00255604
0.00255563
0.00250881
0.00250915
0.00250937
0.0025095
0.00250958
0.00250962
0.00250964
0.00250965
0.00250966
0.00250966
0.00250966
0.00250967
0.00250967
0.00250967
0.00250967
0.00250967
0.00250967
0.00250967
0.00250967
0.00250966
0.00250966
0.00250966
0.00250965
0.00250964
0.00250962
0.00250957
0.00250949
0.00250935
0.00250913
0.00250881
0.0726469
0.0726468
0.0726471
0.0726465
0.0726455
0.0726441
0.0726424
0.0726405
0.0726386
0.0726367
0.0726349
0.0726333
0.0726319
0.0726309
0.0726304
0.0726303
0.0726308
0.0726318
0.0726333
0.0726351
0.072637
0.0726386
0.0726401
0.0726415
0.0726432
0.072645
0.0726468
0.072648
0.0726483
0.072648
0.0449816
0.044981
0.0449815
0.0449823
0.0449832