/*--------------------------------*- C++ -*----------------------------------*\
| =========                 |                                                 |
| \\      /  F ield         | OpenFOAM: The Open Source CFD Toolbox           |
|  \\    /   O peration     | Version:  2506                                  |
|   \\  /    A nd           | Website:  www.openfoam.com                      |
|    \\/     M anipulation  |                                                 |
\*---------------------------------------------------------------------------*/
FoamFile
{
    version     2.0;
    format      ascii;
    arch        "LSB;label=32;scalar=64";
    class       volScalarField;
    location    "30";
    object      k;
}
// * * * * * * * * * * * * * * * * * * * * * * * * * * * * * * * * * * * * * //

dimensions      [0 2 -2 0 0 0 0];

internalField   nonuniform List<scalar> 
144676
(
0.275996
0.275996
0.275996
0.275996
0.275997
0.275997
0.275997
0.275997
0.275996
0.275996
0.275996
0.275995
0.275995
0.275995
0.275995
0.275995
0.275995
0.275995
0.275995
0.275996
0.275996
0.275996
0.275997
0.275997
0.275997
0.275997
0.275997
0.275997
0.275997
0.275995
0.320326
0.320328
0.320328
0.320329
0.32033
0.320331
0.320331
0.320332
0.320332
0.320332
0.320332
0.320333
0.320333
0.320333
0.320333
0.320334
0.320333
0.320333
0.320333
0.320333
0.320333
0.320332
0.320332
0.320331
0.32033
0.320329
0.320329
0.320329
0.320328
0.320327
0.319042
0.319042
0.319043
0.319044
0.319045
0.319045
0.319046
0.319047
0.319047
0.319048
0.319048
0.319049
0.319049
0.319049
0.31905
0.31905
0.319049
0.319049
0.319049
0.319048
0.319048
0.319047
0.319046
0.319046
0.319045
0.319044
0.319044
0.319043
0.319043
0.319042
0.318679
0.318679
0.318679
0.31868
0.318681
0.318682
0.318683
0.318683
0.318684
0.318685
0.318685
0.318686
0.318687
0.318687
0.318687
0.318687
0.318687
0.318686
0.318686
0.318685
0.318685
0.318684
0.318683
0.318682
0.318682
0.318681
0.31868
0.31868
0.318679
0.318679
0.318609
0.318609
0.31861
0.318611
0.318612
0.318612
0.318613
0.318614
0.318615
0.318616
0.318617
0.318617
0.318618
0.318618
0.318619
0.318619
0.318618
0.318618
0.318617
0.318616
0.318616
0.318615
0.318614
0.318613
0.318612
0.318611
0.318611
0.31861
0.318609
0.318609
0.318619
0.31862
0.31862
0.318621
0.318622
0.318623
0.318624
0.318625
0.318626
0.318627
0.318628
0.318628
0.318629
0.31863
0.31863
0.31863
0.318629
0.318629
0.318628
0.318628
0.318627
0.318626
0.318625
0.318624
0.318623
0.318622
0.318621
0.31862
0.31862
0.318619
0.318645
0.318646
0.318646
0.318647
0.318648
0.318649
0.31865
0.318651
0.318652
0.318653
0.318654
0.318655
0.318656
0.318656
0.318656
0.318656
0.318656
0.318655
0.318655
0.318654
0.318653
0.318652
0.318651
0.31865
0.318649
0.318648
0.318647
0.318646
0.318646
0.318645
0.318671
0.318672
0.318672
0.318673
0.318674
0.318675
0.318676
0.318677
0.318679
0.31868
0.318681
0.318681
0.318682
0.318682
0.318683
0.318683
0.318682
0.318682
0.318681
0.31868
0.31868
0.318679
0.318678
0.318677
0.318675
0.318674
0.318673
0.318672
0.318672
0.318671
0.318693
0.318694
0.318695
0.318696
0.318697
0.318698
0.318699
0.3187
0.318702
0.318703
0.318703
0.318704
0.318705
0.318705
0.318705
0.318705
0.318705
0.318705
0.318704
0.318703
0.318702
0.318702
0.3187
0.318699
0.318698
0.318697
0.318696
0.318695
0.318694
0.318693
0.318712
0.318712
0.318713
0.318715
0.318716
0.318717
0.318718
0.318719
0.31872
0.318721
0.318722
0.318723
0.318723
0.318724
0.318724
0.318724
0.318724
0.318723
0.318723
0.318722
0.318721
0.31872
0.318719
0.318718
0.318717
0.318716
0.318715
0.318713
0.318712
0.318711
0.318726
0.318727
0.318728
0.31873
0.318731
0.318732
0.318733
0.318734
0.318735
0.318736
0.318737
0.318738
0.318738
0.318738
0.318739
0.318739
0.318738
0.318738
0.318737
0.318737
0.318736
0.318735
0.318734
0.318733
0.318732
0.318731
0.31873
0.318728
0.318727
0.318726
0.318737
0.318738
0.31874
0.318741
0.318743
0.318744
0.318745
0.318746
0.318747
0.318748
0.318748
0.318749
0.318749
0.31875
0.31875
0.31875
0.31875
0.318749
0.318749
0.318748
0.318748
0.318747
0.318746
0.318745
0.318744
0.318742
0.318741
0.31874
0.318738
0.318737
0.318745
0.318746
0.318748
0.31875
0.318751
0.318753
0.318754
0.318755
0.318755
0.318756
0.318757
0.318757
0.318757
0.318758
0.318758
0.318758
0.318758
0.318757
0.318757
0.318757
0.318756
0.318755
0.318754
0.318754
0.318752
0.318751
0.318749
0.318748
0.318746
0.318745
0.318751
0.318752
0.318753
0.318755
0.318757
0.318758
0.318759
0.31876
0.318761
0.318762
0.318762
0.318763
0.318763
0.318763
0.318763
0.318763
0.318763
0.318763
0.318763
0.318762
0.318762
0.318761
0.31876
0.318759
0.318758
0.318757
0.318755
0.318753
0.318752
0.31875
0.318754
0.318755
0.318757
0.318759
0.31876
0.318762
0.318763
0.318764
0.318764
0.318765
0.318765
0.318766
0.318766
0.318766
0.318766
0.318766
0.318766
0.318766
0.318766
0.318765
0.318765
0.318764
0.318764
0.318763
0.318762
0.31876
0.318758
0.318756
0.318755
0.318753
0.318754
0.318755
0.318757
0.31876
0.318761
0.318763
0.318764
0.318765
0.318765
0.318766
0.318766
0.318766
0.318767
0.318767
0.318767
0.318767
0.318767
0.318767
0.318766
0.318766
0.318766
0.318765
0.318765
0.318764
0.318763
0.318761
0.318759
0.318757
0.318755
0.318754
0.318753
0.318754
0.318756
0.318758
0.31876
0.318762
0.318763
0.318764
0.318764
0.318765
0.318765
0.318765
0.318765
0.318766
0.318766
0.318766
0.318766
0.318765
0.318765
0.318765
0.318765
0.318764
0.318764
0.318763
0.318762
0.31876
0.318758
0.318756
0.318754
0.318752
0.318749
0.318751
0.318753
0.318755
0.318757
0.318759
0.31876
0.318761
0.318761
0.318762
0.318762
0.318762
0.318762
0.318762
0.318762
0.318762
0.318762
0.318762
0.318762
0.318762
0.318762
0.318761
0.318761
0.31876
0.318759
0.318757
0.318755
0.318753
0.318751
0.318749
0.318744
0.318746
0.318748
0.318751
0.318753
0.318754
0.318755
0.318756
0.318757
0.318757
0.318757
0.318757
0.318757
0.318757
0.318757
0.318757
0.318757
0.318757
0.318757
0.318757
0.318757
0.318756
0.318756
0.318755
0.318754
0.318753
0.31875
0.318748
0.318746
0.318744
0.318738
0.318739
0.318742
0.318744
0.318746
0.318748
0.318749
0.31875
0.31875
0.31875
0.31875
0.318751
0.318751
0.318751
0.318751
0.318751
0.318751
0.318751
0.318751
0.31875
0.31875
0.31875
0.318749
0.318749
0.318748
0.318746
0.318744
0.318741
0.318739
0.318737
0.31873
0.318731
0.318733
0.318736
0.318738
0.31874
0.318741
0.318741
0.318742
0.318742
0.318742
0.318742
0.318742
0.318743
0.318743
0.318743
0.318743
0.318742
0.318742
0.318742
0.318742
0.318742
0.318741
0.318741
0.31874
0.318738
0.318736
0.318733
0.318731
0.318729
0.31872
0.318722
0.318724
0.318726
0.318728
0.31873
0.318731
0.318732
0.318732
0.318732
0.318732
0.318732
0.318733
0.318733
0.318733
0.318733
0.318733
0.318733
0.318732
0.318732
0.318732
0.318732
0.318731
0.318731
0.31873
0.318728
0.318726
0.318724
0.318721
0.31872
0.318709
0.31871
0.318713
0.318715
0.318717
0.318718
0.318719
0.31872
0.31872
0.318721
0.318721
0.318721
0.318721
0.318721
0.318721
0.318721
0.318721
0.318721
0.318721
0.318721
0.318721
0.31872
0.31872
0.318719
0.318718
0.318717
0.318715
0.318712
0.31871
0.318709
0.318697
0.318698
0.3187
0.318702
0.318704
0.318705
0.318706
0.318706
0.318707
0.318707
0.318707
0.318707
0.318707
0.318707
0.318707
0.318707
0.318707
0.318707
0.318707
0.318707
0.318707
0.318707
0.318706
0.318706
0.318705
0.318704
0.318702
0.318699
0.318697
0.318696
0.318682
0.318682
0.318684
0.318686
0.318688
0.318689
0.31869
0.31869
0.31869
0.318691
0.318691
0.318691
0.318691
0.318691
0.318691
0.318691
0.318691
0.318691
0.318691
0.318691
0.318691
0.31869
0.31869
0.31869
0.318689
0.318688
0.318686
0.318684
0.318682
0.318681
0.318663
0.318664
0.318666
0.318667
0.318669
0.31867
0.31867
0.318671
0.318671
0.318671
0.318671
0.318671
0.318671
0.318671
0.318671
0.318671
0.318671
0.318671
0.318671
0.318671
0.318671
0.318671
0.318671
0.31867
0.31867
0.318669
0.318667
0.318665
0.318664
0.318663
0.31864
0.318641
0.318642
0.318643
0.318644
0.318645
0.318645
0.318646
0.318646
0.318646
0.318646
0.318646
0.318646
0.318646
0.318646
0.318646
0.318646
0.318646
0.318646
0.318646
0.318646
0.318646
0.318646
0.318645
0.318645
0.318644
0.318643
0.318642
0.318641
0.31864
0.31861
0.31861
0.31861
0.318611
0.318612
0.318612
0.318612
0.318612
0.318612
0.318612
0.318612
0.318612
0.318612
0.318612
0.318612
0.318612
0.318612
0.318612
0.318612
0.318612
0.318612
0.318612
0.318612
0.318612
0.318612
0.318611
0.318611
0.31861
0.31861
0.318609
0.318567
0.318566
0.318566
0.318566
0.318565
0.318565
0.318565
0.318565
0.318565
0.318565
0.318565
0.318565
0.318565
0.318565
0.318565
0.318565
0.318565
0.318565
0.318565
0.318565
0.318565
0.318565
0.318565
0.318565
0.318565
0.318565
0.318566
0.318566
0.318566
0.318567
0.318522
0.31852
0.318519
0.318517
0.318516
0.318516
0.318515
0.318515
0.318515
0.318515
0.318515
0.318515
0.318515
0.318515
0.318515
0.318515
0.318515
0.318515
0.318515
0.318515
0.318515
0.318515
0.318515
0.318515
0.318516
0.318516
0.318517
0.318519
0.31852
0.318522
0.243632
0.243633
0.243634
0.243634
0.243635
0.243634
0.243634
0.243633
0.243631
0.24363
0.243629
0.243628
0.243627
0.243627
0.243627
0.243627
0.243627
0.243628
0.243629
0.24363
0.243631
0.243632
0.243633
0.243634
0.243634
0.243634
0.243634
0.243635
0.243635
0.243633
0.319981
0.319981
0.319982
0.319984
0.319986
0.319987
0.319988
0.319989
0.31999
0.319991
0.319992
0.319993
0.319993
0.319994
0.319994
0.319994
0.319994
0.319994
0.319993
0.319993
0.319992
0.319991
0.319989
0.319988
0.319986
0.319984
0.319983
0.319983
0.319983
0.319983
0.319616
0.319615
0.319616
0.319618
0.319619
0.319621
0.319623
0.319624
0.319625
0.319627
0.319628
0.319629
0.31963
0.319631
0.319631
0.319631
0.319631
0.31963
0.319629
0.319628
0.319627
0.319625
0.319624
0.319622
0.31962
0.319619
0.319617
0.319617
0.319616
0.319617
0.318889
0.318889
0.31889
0.318892
0.318894
0.318896
0.318897
0.318899
0.318901
0.318902
0.318904
0.318905
0.318906
0.318907
0.318907
0.318907
0.318907
0.318906
0.318905
0.318903
0.318902
0.3189
0.318899
0.318897
0.318895
0.318893
0.318892
0.31889
0.31889
0.31889
0.318635
0.318635
0.318637
0.318639
0.31864
0.318642
0.318644
0.318646
0.318648
0.31865
0.318652
0.318653
0.318654
0.318655
0.318656
0.318656
0.318655
0.318654
0.318653
0.318651
0.31865
0.318648
0.318646
0.318644
0.318642
0.31864
0.318638
0.318636
0.318636
0.318635
0.318582
0.318583
0.318585
0.318587
0.318589
0.318591
0.318593
0.318595
0.318597
0.318599
0.318601
0.318603
0.318604
0.318605
0.318606
0.318606
0.318605
0.318604
0.318602
0.318601
0.318599
0.318598
0.318596
0.318593
0.318591
0.318588
0.318586
0.318584
0.318583
0.318582
0.318591
0.318592
0.318594
0.318596
0.318598
0.3186
0.318603
0.318605
0.318607
0.318609
0.318612
0.318613
0.318615
0.318616
0.318616
0.318616
0.318616
0.318614
0.318613
0.318611
0.31861
0.318608
0.318606
0.318603
0.3186
0.318598
0.318595
0.318593
0.318592
0.318591
0.318617
0.318619
0.31862
0.318623
0.318626
0.318628
0.318631
0.318633
0.318635
0.318638
0.31864
0.318642
0.318643
0.318644
0.318644
0.318644
0.318643
0.318642
0.318641
0.31864
0.318638
0.318636
0.318633
0.318631
0.318628
0.318625
0.318623
0.31862
0.318618
0.318617
0.318646
0.318647
0.318649
0.318653
0.318656
0.318659
0.318661
0.318664
0.318666
0.318668
0.31867
0.318672
0.318673
0.318674
0.318674
0.318674
0.318674
0.318673
0.318671
0.31867
0.318668
0.318666
0.318664
0.318661
0.318658
0.318655
0.318652
0.318649
0.318647
0.318645
0.318671
0.318673
0.318676
0.318679
0.318683
0.318686
0.318689
0.318692
0.318694
0.318696
0.318698
0.318699
0.3187
0.318701
0.318701
0.318701
0.318701
0.3187
0.318699
0.318697
0.318696
0.318694
0.318691
0.318689
0.318686
0.318683
0.318679
0.318676
0.318673
0.318671
0.318692
0.318694
0.318697
0.318702
0.318706
0.318709
0.318712
0.318715
0.318717
0.318718
0.31872
0.318721
0.318722
0.318723
0.318724
0.318724
0.318723
0.318722
0.318721
0.31872
0.318718
0.318716
0.318714
0.318712
0.318709
0.318706
0.318702
0.318697
0.318694
0.318692
0.318707
0.318709
0.318714
0.318719
0.318723
0.318727
0.31873
0.318732
0.318734
0.318736
0.318737
0.318738
0.318739
0.31874
0.31874
0.31874
0.31874
0.318739
0.318738
0.318737
0.318736
0.318734
0.318732
0.31873
0.318727
0.318723
0.318718
0.318713
0.318709
0.318707
0.318717
0.31872
0.318725
0.31873
0.318735
0.318739
0.318742
0.318744
0.318746
0.318748
0.318749
0.31875
0.318751
0.318751
0.318752
0.318752
0.318751
0.318751
0.31875
0.318749
0.318748
0.318746
0.318744
0.318742
0.318739
0.318735
0.31873
0.318724
0.318719
0.318716
0.318722
0.318725
0.31873
0.318736
0.318742
0.318746
0.318749
0.318751
0.318753
0.318754
0.318755
0.318756
0.318757
0.318758
0.318758
0.318758
0.318757
0.318757
0.318756
0.318755
0.318754
0.318753
0.318751
0.318749
0.318746
0.318741
0.318736
0.31873
0.318724
0.318721
0.318721
0.318725
0.318731
0.318737
0.318743
0.318748
0.318751
0.318753
0.318755
0.318756
0.318757
0.318758
0.318758
0.318759
0.318759
0.318759
0.318759
0.318758
0.318758
0.318757
0.318756
0.318755
0.318753
0.318751
0.318747
0.318743
0.318737
0.31873
0.318724
0.318721
0.318717
0.31872
0.318727
0.318734
0.31874
0.318745
0.318748
0.31875
0.318752
0.318753
0.318754
0.318754
0.318755
0.318755
0.318755
0.318755
0.318755
0.318755
0.318754
0.318754
0.318753
0.318751
0.31875
0.318748
0.318745
0.31874
0.318734
0.318726
0.318719
0.318716
0.318708
0.318711
0.318718
0.318726
0.318733
0.318737
0.31874
0.318743
0.318744
0.318745
0.318746
0.318746
0.318747
0.318747
0.318747
0.318747
0.318747
0.318747
0.318746
0.318746
0.318745
0.318744
0.318742
0.31874
0.318737
0.318732
0.318726
0.318718
0.318711
0.318707
0.318695
0.318699
0.318706
0.318714
0.318721
0.318726
0.318729
0.318731
0.318732
0.318733
0.318734
0.318734
0.318734
0.318735
0.318735
0.318735
0.318735
0.318735
0.318734
0.318734
0.318733
0.318732
0.318731
0.318729
0.318725
0.318721
0.318714
0.318706
0.318698
0.318694
0.318679
0.318683
0.31869
0.318699
0.318705
0.31871
0.318714
0.318716
0.318717
0.318718
0.318718
0.318718
0.318719
0.318719
0.318719
0.318719
0.318719
0.318719
0.318718
0.318718
0.318717
0.318717
0.318715
0.318713
0.31871
0.318705
0.318698
0.31869
0.318682
0.318678
0.318661
0.318664
0.318671
0.31868
0.318687
0.318691
0.318695
0.318697
0.318698
0.318698
0.318699
0.318699
0.318699
0.318699
0.3187
0.3187
0.3187
0.318699
0.318699
0.318699
0.318698
0.318698
0.318696
0.318694
0.318691
0.318686
0.318679
0.318671
0.318663
0.31866
0.31864
0.318642
0.31865
0.318658
0.318665
0.318669
0.318672
0.318674
0.318675
0.318676
0.318676
0.318677
0.318677
0.318677
0.318677
0.318677
0.318677
0.318677
0.318677
0.318676
0.318676
0.318675
0.318674
0.318672
0.318669
0.318664
0.318657
0.318649
0.318642
0.318638
0.318616
0.318618
0.318625
0.318633
0.31864
0.318644
0.318647
0.318649
0.31865
0.31865
0.318651
0.318651
0.318651
0.318651
0.318651
0.318651
0.318651
0.318651
0.318651
0.318651
0.31865
0.31865
0.318649
0.318647
0.318644
0.318639
0.318633
0.318625
0.318618
0.318615
0.31859
0.318592
0.318598
0.318605
0.318611
0.318616
0.318618
0.31862
0.318621
0.318621
0.318622
0.318622
0.318622
0.318622
0.318622
0.318622
0.318622
0.318622
0.318622
0.318622
0.318621
0.318621
0.31862
0.318618
0.318615
0.318611
0.318605
0.318598
0.318591
0.318589
0.318561
0.318562
0.318568
0.318574
0.31858
0.318584
0.318586
0.318587
0.318588
0.318589
0.318589
0.318589
0.318589
0.318589
0.318589
0.318589
0.318589
0.318589
0.318589
0.318589
0.318588
0.318588
0.318587
0.318586
0.318583
0.318579
0.318574
0.318567
0.318561
0.318559
0.318526
0.318527
0.318532
0.318538
0.318543
0.318546
0.318548
0.318549
0.318549
0.31855
0.31855
0.31855
0.31855
0.31855
0.31855
0.31855
0.31855
0.31855
0.31855
0.31855
0.31855
0.318549
0.318549
0.318548
0.318545
0.318542
0.318537
0.318532
0.318526
0.318525
0.318484
0.318484
0.318488
0.318493
0.318496
0.318499
0.3185
0.318501
0.318501
0.318502
0.318502
0.318502
0.318502
0.318502
0.318502
0.318502
0.318502
0.318502
0.318502
0.318502
0.318502
0.318501
0.318501
0.3185
0.318499
0.318496
0.318492
0.318487
0.318483
0.318482
0.318427
0.318426
0.318429
0.318432
0.318435
0.318436
0.318437
0.318437
0.318437
0.318437
0.318437
0.318437
0.318437
0.318437
0.318437
0.318437
0.318437
0.318437
0.318437
0.318437
0.318437
0.318437
0.318437
0.318437
0.318436
0.318434
0.318432
0.318429
0.318426
0.318426
0.318347
0.318345
0.318346
0.318347
0.318347
0.318347
0.318347
0.318347
0.318347
0.318347
0.318347
0.318347
0.318347
0.318347
0.318347
0.318347
0.318347
0.318347
0.318347
0.318347
0.318347
0.318347
0.318347
0.318347
0.318347
0.318347
0.318347
0.318346
0.318345
0.318346
0.318239
0.318236
0.318233
0.318231
0.31823
0.318228
0.318227
0.318226
0.318226
0.318225
0.318225
0.318225
0.318225
0.318225
0.318225
0.318225
0.318225
0.318225
0.318225
0.318225
0.318226
0.318226
0.318226
0.318227
0.318228
0.31823
0.318231
0.318233
0.318235
0.318239
0.31814
0.318134
0.318129
0.318124
0.31812
0.318118
0.318116
0.318115
0.318114
0.318114
0.318114
0.318114
0.318114
0.318114
0.318114
0.318114
0.318114
0.318114
0.318114
0.318114
0.318114
0.318114
0.318115
0.318116
0.318118
0.318121
0.318124
0.318129
0.318134
0.31814
0.219736
0.219735
0.219736
0.219736
0.219736
0.219735
0.219733
0.21973
0.219728
0.219725
0.219724
0.219722
0.219721
0.21972
0.219719
0.219719
0.21972
0.219721
0.219723
0.219725
0.219727
0.21973
0.219732
0.219733
0.219734
0.219735
0.219737
0.219738
0.219739
0.219738
0.318445
0.318443
0.318444
0.318446
0.318448
0.318451
0.318453
0.318456
0.318458
0.318461
0.318463
0.318465
0.318466
0.318467
0.318467
0.318467
0.318467
0.318466
0.318465
0.318464
0.318462
0.318459
0.318456
0.318453
0.31845
0.318447
0.318446
0.318445
0.318445
0.318446
0.320135
0.320134
0.320134
0.320137
0.320139
0.320142
0.320145
0.320148
0.320151
0.320154
0.320157
0.320159
0.32016
0.320161
0.320162
0.320162
0.320161
0.32016
0.320158
0.320156
0.320154
0.320151
0.320148
0.320145
0.320141
0.320139
0.320136
0.320135
0.320134
0.320136
0.31924
0.31924
0.319241
0.319244
0.319247
0.31925
0.319254
0.319257
0.31926
0.319263
0.319266
0.319268
0.31927
0.319271
0.319272
0.319272
0.319271
0.31927
0.319268
0.319265
0.319263
0.31926
0.319257
0.319253
0.31925
0.319246
0.319243
0.319241
0.31924
0.31924
0.318781
0.318782
0.318784
0.318787
0.318791
0.318794
0.318798
0.318801
0.318805
0.318808
0.318811
0.318814
0.318816
0.318818
0.318818
0.318818
0.318817
0.318816
0.318814
0.318811
0.318809
0.318805
0.318802
0.318798
0.318794
0.31879
0.318786
0.318783
0.318782
0.318781
0.318629
0.31863
0.318632
0.318636
0.31864
0.318644
0.318648
0.318651
0.318655
0.318659
0.318662
0.318665
0.318667
0.318669
0.31867
0.31867
0.318669
0.318667
0.318665
0.318662
0.318659
0.318656
0.318652
0.318648
0.318644
0.318639
0.318635
0.318631
0.318629
0.318628
0.318593
0.318594
0.318598
0.318602
0.318607
0.318611
0.318615
0.31862
0.318624
0.318627
0.318631
0.318634
0.318636
0.318638
0.318638
0.318638
0.318637
0.318635
0.318633
0.318631
0.318628
0.318624
0.31862
0.318616
0.318611
0.318606
0.318601
0.318597
0.318594
0.318592
0.3186
0.318602
0.318607
0.318612
0.318618
0.318623
0.318628
0.318632
0.318636
0.31864
0.318643
0.318646
0.318648
0.31865
0.318651
0.31865
0.318649
0.318648
0.318645
0.318643
0.31864
0.318636
0.318632
0.318628
0.318623
0.318618
0.318612
0.318606
0.318602
0.3186
0.318621
0.318624
0.318629
0.318636
0.318643
0.318649
0.318654
0.318658
0.318662
0.318666
0.318669
0.318672
0.318674
0.318675
0.318676
0.318676
0.318675
0.318673
0.318671
0.318669
0.318666
0.318662
0.318658
0.318653
0.318648
0.318643
0.318636
0.318629
0.318623
0.31862
0.318642
0.318646
0.318653
0.318662
0.318669
0.318676
0.318681
0.318685
0.318689
0.318693
0.318696
0.318698
0.3187
0.318701
0.318702
0.318702
0.318701
0.3187
0.318698
0.318695
0.318692
0.318689
0.318685
0.318681
0.318675
0.318669
0.318661
0.318653
0.318646
0.318642
0.318659
0.318664
0.318673
0.318683
0.318691
0.318698
0.318704
0.318708
0.318712
0.318715
0.318718
0.31872
0.318722
0.318723
0.318724
0.318724
0.318723
0.318722
0.31872
0.318718
0.318715
0.318712
0.318708
0.318704
0.318698
0.318691
0.318682
0.318672
0.318663
0.318659
0.31867
0.318675
0.318685
0.318697
0.318707
0.318714
0.31872
0.318724
0.318728
0.318731
0.318733
0.318735
0.318737
0.318738
0.318738
0.318738
0.318738
0.318737
0.318735
0.318733
0.318731
0.318728
0.318724
0.31872
0.318714
0.318706
0.318696
0.318685
0.318674
0.318669
0.318673
0.318679
0.31869
0.318703
0.318714
0.318722
0.318728
0.318733
0.318736
0.318739
0.318741
0.318743
0.318744
0.318745
0.318746
0.318745
0.318745
0.318744
0.318743
0.318741
0.318739
0.318736
0.318733
0.318728
0.318722
0.318714
0.318703
0.31869
0.318678
0.318671
0.318668
0.318675
0.318688
0.318702
0.318714
0.318723
0.318729
0.318733
0.318736
0.318739
0.318741
0.318742
0.318743
0.318744
0.318745
0.318744
0.318744
0.318743
0.318742
0.318741
0.318739
0.318736
0.318733
0.318729
0.318722
0.318713
0.318701
0.318687
0.318673
0.318666
0.318656
0.318663
0.318678
0.318693
0.318706
0.318715
0.318721
0.318726
0.318729
0.318731
0.318733
0.318734
0.318735
0.318736
0.318736
0.318736
0.318735
0.318735
0.318734
0.318733
0.318731
0.318729
0.318726
0.318721
0.318715
0.318705
0.318692
0.318677
0.318662
0.318655
0.318638
0.318645
0.318661
0.318677
0.31869
0.3187
0.318707
0.318711
0.318714
0.318716
0.318717
0.318718
0.318719
0.31872
0.31872
0.31872
0.31872
0.318719
0.318718
0.318717
0.318716
0.318714
0.318711
0.318706
0.3187
0.31869
0.318676
0.31866
0.318644
0.318636
0.318614
0.318622
0.318638
0.318655
0.318669
0.318679
0.318685
0.318689
0.318692
0.318694
0.318695
0.318696
0.318696
0.318697
0.318697
0.318697
0.318697
0.318696
0.318696
0.318695
0.318694
0.318692
0.318689
0.318685
0.318678
0.318668
0.318654
0.318637
0.31862
0.318612
0.318586
0.318593
0.318609
0.318626
0.318641
0.318651
0.318657
0.318662
0.318664
0.318666
0.318667
0.318667
0.318668
0.318668
0.318668
0.318668
0.318668
0.318668
0.318667
0.318667
0.318666
0.318664
0.318661
0.318657
0.31865
0.31864
0.318626
0.318608
0.318591
0.318584
0.318553
0.31856
0.318576
0.318593
0.318608
0.318618
0.318624
0.318628
0.318631
0.318632
0.318633
0.318633
0.318634
0.318634
0.318634
0.318634
0.318634
0.318634
0.318634
0.318633
0.318632
0.318631
0.318628
0.318624
0.318617
0.318607
0.318593
0.318575
0.318558
0.318551
0.318518
0.318523
0.318539
0.318556
0.31857
0.31858
0.318587
0.31859
0.318593
0.318594
0.318595
0.318595
0.318595
0.318595
0.318596
0.318596
0.318596
0.318595
0.318595
0.318595
0.318594
0.318592
0.31859
0.318586
0.31858
0.31857
0.318556
0.318538
0.318522
0.318515
0.31848
0.318484
0.318499
0.318516
0.318529
0.318539
0.318545
0.318548
0.31855
0.318552
0.318552
0.318552
0.318553
0.318553
0.318553
0.318553
0.318553
0.318553
0.318552
0.318552
0.318551
0.31855
0.318548
0.318544
0.318538
0.318529
0.318515
0.318498
0.318483
0.318477
0.318439
0.318443
0.318457
0.318472
0.318485
0.318494
0.318499
0.318503
0.318504
0.318505
0.318506
0.318506
0.318506
0.318506
0.318507
0.318506
0.318506
0.318506
0.318506
0.318506
0.318505
0.318504
0.318502
0.318499
0.318493
0.318484
0.318471
0.318456
0.318441
0.318437
0.318396
0.318399
0.318411
0.318425
0.318437
0.318445
0.31845
0.318453
0.318454
0.318455
0.318455
0.318456
0.318456
0.318456
0.318456
0.318456
0.318456
0.318456
0.318456
0.318455
0.318455
0.318454
0.318452
0.318449
0.318444
0.318436
0.318424
0.31841
0.318397
0.318394
0.318349
0.31835
0.318361
0.318373
0.318383
0.318391
0.318395
0.318397
0.318399
0.318399
0.3184
0.3184
0.3184
0.3184
0.3184
0.3184
0.3184
0.318399
0.318399
0.318399
0.318399
0.318398
0.318397
0.318395
0.31839
0.318383
0.318372
0.31836
0.318349
0.318347
0.318294
0.318294
0.318303
0.318313
0.318322
0.318327
0.318331
0.318333
0.318334
0.318334
0.318334
0.318334
0.318334
0.318334
0.318334
0.318334
0.318334
0.318334
0.318334
0.318334
0.318334
0.318333
0.318332
0.31833
0.318327
0.318321
0.318312
0.318302
0.318293
0.318292
0.318225
0.318224
0.31823
0.318238
0.318244
0.318248
0.31825
0.318251
0.318252
0.318252
0.318252
0.318252
0.318252
0.318252
0.318252
0.318252
0.318252
0.318252
0.318252
0.318252
0.318252
0.318252
0.318251
0.31825
0.318248
0.318243
0.318237
0.318229
0.318222
0.318223
0.318131
0.318128
0.318132
0.318136
0.318139
0.318141
0.318142
0.318142
0.318142
0.318142
0.318141
0.318141
0.318141
0.318141
0.318141
0.318141
0.318141
0.318141
0.318141
0.318141
0.318142
0.318142
0.318142
0.318142
0.318141
0.318139
0.318135
0.318131
0.318127
0.31813
0.318003
0.317998
0.317997
0.317997
0.317996
0.317995
0.317994
0.317993
0.317992
0.317992
0.317991
0.317991
0.317991
0.317991
0.317991
0.317991
0.317991
0.317991
0.317991
0.317992
0.317992
0.317992
0.317993
0.317994
0.317995
0.317996
0.317997
0.317997
0.317998
0.318002
0.317848
0.317839
0.317832
0.317826
0.317821
0.317817
0.317814
0.317811
0.31781
0.317809
0.317809
0.317809
0.317809
0.317809
0.317809
0.317809
0.317809
0.317809
0.317809
0.317809
0.317809
0.31781
0.317812
0.317814
0.317817
0.317821
0.317826
0.317832
0.317839
0.317848
0.317723
0.31771
0.317697
0.317686
0.317678
0.317671
0.317667
0.317664
0.317662
0.317661
0.317661
0.317661
0.317661
0.317661
0.317661
0.317661
0.317661
0.317661
0.317661
0.317661
0.317662
0.317662
0.317664
0.317667
0.317672
0.317678
0.317687
0.317698
0.317711
0.317724
0.201776
0.201774
0.201774
0.201773
0.201771
0.201768
0.201765
0.201761
0.201757
0.201753
0.20175
0.201747
0.201745
0.201743
0.201742
0.201742
0.201743
0.201745
0.201748
0.201751
0.201755
0.201759
0.201762
0.201765
0.201768
0.201771
0.201774
0.201776
0.201777
0.201778
0.316069
0.316067
0.316068
0.316071
0.316074
0.316078
0.316083
0.316088
0.316093
0.316098
0.316102
0.316105
0.316107
0.316108
0.316109
0.316109
0.316108
0.316106
0.316104
0.316102
0.316098
0.316094
0.316089
0.316083
0.316078
0.316074
0.316071
0.316069
0.316068
0.31607
0.320464
0.320462
0.320464
0.320467
0.320472
0.320477
0.320482
0.320487
0.320493
0.320498
0.320502
0.320505
0.320508
0.32051
0.32051
0.32051
0.320509
0.320507
0.320505
0.320501
0.320497
0.320492
0.320487
0.320482
0.320476
0.320471
0.320467
0.320463
0.320462
0.320464
0.319665
0.319665
0.319668
0.319672
0.319677
0.319683
0.319689
0.319694
0.3197
0.319705
0.31971
0.319713
0.319716
0.319718
0.319719
0.319719
0.319718
0.319716
0.319713
0.319709
0.319705
0.3197
0.319694
0.319688
0.319682
0.319677
0.319671
0.319667
0.319664
0.319664
0.319031
0.319032
0.319036
0.319041
0.319047
0.319054
0.31906
0.319066
0.319072
0.319077
0.319082
0.319086
0.319089
0.319092
0.319093
0.319093
0.319092
0.319089
0.319086
0.319082
0.319077
0.319072
0.319066
0.31906
0.319053
0.319047
0.31904
0.319035
0.319031
0.31903
0.318755
0.318757
0.318763
0.31877
0.318777
0.318784
0.31879
0.318797
0.318803
0.318809
0.318814
0.318818
0.318821
0.318824
0.318825
0.318825
0.318824
0.318821
0.318818
0.318814
0.318809
0.318804
0.318798
0.318791
0.318784
0.318776
0.318769
0.318761
0.318756
0.318754
0.31865
0.318654
0.318661
0.31867
0.318679
0.318687
0.318694
0.3187
0.318707
0.318712
0.318718
0.318722
0.318726
0.318728
0.318729
0.318729
0.318728
0.318725
0.318722
0.318718
0.318713
0.318708
0.318701
0.318694
0.318686
0.318678
0.318669
0.31866
0.318652
0.318649
0.318618
0.318623
0.318633
0.318644
0.318655
0.318664
0.318672
0.318679
0.318685
0.318691
0.318696
0.3187
0.318704
0.318706
0.318707
0.318707
0.318705
0.318703
0.3187
0.318696
0.318691
0.318685
0.318679
0.318672
0.318664
0.318654
0.318644
0.318632
0.318622
0.318617
0.318613
0.31862
0.318633
0.318647
0.31866
0.31867
0.318679
0.318686
0.318692
0.318697
0.318702
0.318706
0.318709
0.318711
0.318712
0.318712
0.318711
0.318709
0.318706
0.318702
0.318697
0.318692
0.318685
0.318678
0.31867
0.318659
0.318647
0.318632
0.318619
0.318612
0.318616
0.318624
0.31864
0.318657
0.318672
0.318683
0.318692
0.3187
0.318705
0.318711
0.318715
0.318719
0.318722
0.318724
0.318725
0.318725
0.318724
0.318722
0.318719
0.318715
0.31871
0.318705
0.318699
0.318692
0.318683
0.318671
0.318656
0.318639
0.318623
0.318614
0.318615
0.318625
0.318644
0.318664
0.318681
0.318693
0.318703
0.31871
0.318716
0.318721
0.318725
0.318728
0.318731
0.318733
0.318734
0.318734
0.318733
0.318731
0.318728
0.318725
0.318721
0.318716
0.31871
0.318703
0.318693
0.31868
0.318663
0.318643
0.318624
0.318613
0.318607
0.318618
0.31864
0.318663
0.318682
0.318696
0.318706
0.318713
0.318719
0.318723
0.318727
0.31873
0.318732
0.318734
0.318735
0.318735
0.318734
0.318732
0.31873
0.318727
0.318723
0.318719
0.318713
0.318705
0.318695
0.318681
0.318662
0.318639
0.318617
0.318605
0.31859
0.318603
0.318627
0.318652
0.318673
0.318688
0.318698
0.318706
0.318711
0.318715
0.318719
0.318721
0.318723
0.318725
0.318725
0.318725
0.318725
0.318723
0.318721
0.318719
0.318715
0.318711
0.318706
0.318698
0.318687
0.318672
0.318651
0.318626
0.318601
0.318588
0.318564
0.318577
0.318604
0.318631
0.318653
0.318669
0.31868
0.318688
0.318693
0.318697
0.3187
0.318702
0.318704
0.318705
0.318706
0.318705
0.318705
0.318704
0.318702
0.3187
0.318697
0.318693
0.318688
0.31868
0.318669
0.318653
0.31863
0.318602
0.318575
0.318561
0.31853
0.318543
0.318571
0.3186
0.318624
0.318641
0.318652
0.318659
0.318664
0.318668
0.318671
0.318673
0.318674
0.318675
0.318675
0.318675
0.318675
0.318674
0.318672
0.31867
0.318668
0.318664
0.318659
0.318652
0.31864
0.318623
0.318599
0.31857
0.318541
0.318527
0.318488
0.318501
0.31853
0.318561
0.318585
0.318603
0.318614
0.318621
0.318626
0.318629
0.318632
0.318633
0.318634
0.318635
0.318636
0.318636
0.318635
0.318634
0.318633
0.318632
0.318629
0.318626
0.318621
0.318614
0.318602
0.318584
0.318559
0.318529
0.318499
0.318485
0.31844
0.318453
0.318482
0.318513
0.318538
0.318556
0.318568
0.318575
0.318579
0.318582
0.318584
0.318585
0.318586
0.318587
0.318587
0.318587
0.318587
0.318586
0.318585
0.318584
0.318582
0.318579
0.318575
0.318567
0.318556
0.318537
0.318512
0.318481
0.31845
0.318437
0.318387
0.318399
0.318429
0.318459
0.318485
0.318502
0.318514
0.318521
0.318525
0.318528
0.318529
0.31853
0.318531
0.318532
0.318532
0.318532
0.318532
0.318531
0.31853
0.318529
0.318528
0.318525
0.318521
0.318514
0.318502
0.318484
0.318458
0.318427
0.318397
0.318384
0.318332
0.318342
0.31837
0.318401
0.318425
0.318443
0.318454
0.318461
0.318465
0.318467
0.318468
0.318469
0.31847
0.31847
0.318471
0.318471
0.31847
0.31847
0.318469
0.318469
0.318467
0.318465
0.318461
0.318454
0.318442
0.318425
0.3184
0.318369
0.31834
0.318328
0.318274
0.318282