/*--------------------------------*- C++ -*----------------------------------*\
| =========                 |                                                 |
| \\      /  F ield         | OpenFOAM: The Open Source CFD Toolbox           |
|  \\    /   O peration     | Version:  2506                                  |
|   \\  /    A nd           | Website:  www.openfoam.com                      |
|    \\/     M anipulation  |                                                 |
\*---------------------------------------------------------------------------*/
FoamFile
{
    version     2.0;
    format      ascii;
    arch        "LSB;label=32;scalar=64";
    class       volScalarField;
    location    "30";
    object      nut;
}
// * * * * * * * * * * * * * * * * * * * * * * * * * * * * * * * * * * * * * //

dimensions      [0 2 -1 0 0 0 0];

internalField   nonuniform List<scalar> 
144676
(
0.0589889
0.058989
0.058989
0.058989
0.058989
0.058989
0.058989
0.0589889
0.0589889
0.0589888
0.0589888
0.0589888
0.0589887
0.0589886
0.0589885
0.0589885
0.0589884
0.0589885
0.0589886
0.0589887
0.0589888
0.0589889
0.0589891
0.0589892
0.0589893
0.0589892
0.0589891
0.058989
0.0589889
0.0589886
0.195946
0.195947
0.195947
0.195947
0.195947
0.195947
0.195948
0.195948
0.195948
0.195948
0.195948
0.195948
0.195948
0.195948
0.195948
0.195948
0.195948
0.195948
0.195948
0.195948
0.195948
0.195948
0.195948
0.195948
0.195947
0.195947
0.195947
0.195947
0.195947
0.195946
0.323261
0.323261
0.323261
0.323261
0.323261
0.323262
0.323262
0.323262
0.323262
0.323262
0.323262
0.323262
0.323262
0.323262
0.323262
0.323262
0.323262
0.323262
0.323262
0.323262
0.323262
0.323262
0.323262
0.323262
0.323261
0.323261
0.323261
0.323261
0.323261
0.323261
0.450252
0.450251
0.450251
0.450252
0.450252
0.450253
0.450253
0.450253
0.450254
0.450254
0.450254
0.450254
0.450254
0.450255
0.450255
0.450255
0.450255
0.450254
0.450254
0.450254
0.450254
0.450253
0.450253
0.450253
0.450252
0.450252
0.450252
0.450252
0.450252
0.450252
0.577078
0.577079
0.577079
0.57708
0.57708
0.577081
0.577081
0.577082
0.577082
0.577083
0.577083
0.577084
0.577084
0.577084
0.577084
0.577084
0.577084
0.577084
0.577083
0.577083
0.577083
0.577082
0.577082
0.577081
0.577081
0.57708
0.57708
0.577079
0.577079
0.577079
0.703874
0.703875
0.703875
0.703876
0.703877
0.703878
0.703878
0.703879
0.70388
0.703881
0.703881
0.703882
0.703882
0.703883
0.703883
0.703883
0.703883
0.703882
0.703882
0.703881
0.703881
0.70388
0.703879
0.703879
0.703878
0.703877
0.703876
0.703875
0.703875
0.703874
0.830665
0.830666
0.830667
0.830668
0.830669
0.83067
0.830671
0.830672
0.830673
0.830674
0.830675
0.830676
0.830676
0.830677
0.830677
0.830677
0.830677
0.830676
0.830675
0.830675
0.830674
0.830673
0.830672
0.830671
0.83067
0.830669
0.830668
0.830667
0.830666
0.830665
0.957457
0.957458
0.957459
0.95746
0.957462
0.957463
0.957464
0.957466
0.957467
0.957468
0.957469
0.95747
0.957471
0.957471
0.957472
0.957472
0.957471
0.957471
0.95747
0.957469
0.957468
0.957467
0.957466
0.957465
0.957463
0.957462
0.95746
0.957459
0.957458
0.957457
1.08425
1.08425
1.08425
1.08425
1.08426
1.08426
1.08426
1.08426
1.08426
1.08426
1.08426
1.08427
1.08427
1.08427
1.08427
1.08427
1.08427
1.08427
1.08427
1.08426
1.08426
1.08426
1.08426
1.08426
1.08426
1.08426
1.08425
1.08425
1.08425
1.08425
1.21104
1.21104
1.21104
1.21105
1.21105
1.21105
1.21105
1.21106
1.21106
1.21106
1.21106
1.21106
1.21106
1.21106
1.21106
1.21106
1.21106
1.21106
1.21106
1.21106
1.21106
1.21106
1.21106
1.21105
1.21105
1.21105
1.21105
1.21104
1.21104
1.21104
1.33783
1.33783
1.33783
1.33784
1.33784
1.33784
1.33785
1.33785
1.33785
1.33785
1.33785
1.33785
1.33785
1.33785
1.33786
1.33786
1.33785
1.33785
1.33785
1.33785
1.33785
1.33785
1.33785
1.33785
1.33784
1.33784
1.33784
1.33783
1.33783
1.33783
1.46462
1.46462
1.46462
1.46463
1.46463
1.46463
1.46464
1.46464
1.46464
1.46464
1.46464
1.46464
1.46464
1.46464
1.46464
1.46464
1.46464
1.46464
1.46464
1.46464
1.46464
1.46464
1.46464
1.46463
1.46463
1.46463
1.46463
1.46462
1.46462
1.46462
1.5914
1.5914
1.5914
1.59141
1.59141
1.59142
1.59142
1.59142
1.59142
1.59142
1.59142
1.59143
1.59143
1.59143
1.59143
1.59143
1.59143
1.59143
1.59143
1.59142
1.59142
1.59142
1.59142
1.59142
1.59142
1.59141
1.59141
1.5914
1.5914
1.5914
1.71817
1.71817
1.71818
1.71818
1.71819
1.71819
1.71819
1.7182
1.7182
1.7182
1.7182
1.7182
1.7182
1.7182
1.7182
1.7182
1.7182
1.7182
1.7182
1.7182
1.7182
1.7182
1.7182
1.71819
1.71819
1.71819
1.71818
1.71818
1.71817
1.71817
1.84494
1.84494
1.84494
1.84495
1.84495
1.84496
1.84496
1.84496
1.84496
1.84496
1.84497
1.84497
1.84497
1.84497
1.84497
1.84497
1.84497
1.84497
1.84497
1.84497
1.84496
1.84496
1.84496
1.84496
1.84496
1.84495
1.84495
1.84494
1.84493
1.84493
1.97169
1.97169
1.97169
1.9717
1.9717
1.97171
1.97171
1.97171
1.97172
1.97172
1.97172
1.97172
1.97172
1.97172
1.97172
1.97172
1.97172
1.97172
1.97172
1.97172
1.97172
1.97172
1.97171
1.97171
1.97171
1.9717
1.9717
1.97169
1.97169
1.97169
2.09843
2.09843
2.09843
2.09844
2.09844
2.09845
2.09845
2.09845
2.09846
2.09846
2.09846
2.09846
2.09846
2.09846
2.09846
2.09846
2.09846
2.09846
2.09846
2.09846
2.09846
2.09846
2.09845
2.09845
2.09845
2.09844
2.09844
2.09843
2.09843
2.09843
2.22516
2.22515
2.22515
2.22516
2.22517
2.22517
2.22517
2.22518
2.22518
2.22518
2.22518
2.22518
2.22518
2.22518
2.22518
2.22518
2.22518
2.22518
2.22518
2.22518
2.22518
2.22518
2.22518
2.22517
2.22517
2.22517
2.22516
2.22515
2.22515
2.22516
2.35187
2.35186
2.35186
2.35186
2.35187
2.35187
2.35188
2.35188
2.35188
2.35188
2.35188
2.35188
2.35188
2.35188
2.35188
2.35188
2.35188
2.35188
2.35188
2.35188
2.35188
2.35188
2.35188
2.35188
2.35187
2.35187
2.35186
2.35186
2.35186
2.35187
2.47857
2.47855
2.47855
2.47855
2.47855
2.47856
2.47856
2.47856
2.47856
2.47856
2.47857
2.47857
2.47857
2.47857
2.47857
2.47857
2.47857
2.47857
2.47857
2.47857
2.47856
2.47856
2.47856
2.47856
2.47856
2.47855
2.47855
2.47855
2.47855
2.47856
2.60524
2.60522
2.60521
2.60521
2.60521
2.60522
2.60522
2.60522
2.60522
2.60522
2.60522
2.60522
2.60522
2.60522
2.60522
2.60522
2.60522
2.60522
2.60522
2.60522
2.60522
2.60522
2.60522
2.60522
2.60522
2.60521
2.60521
2.60521
2.60522
2.60523
2.73189
2.73186
2.73185
2.73185
2.73185
2.73185
2.73185
2.73185
2.73185
2.73185
2.73185
2.73185
2.73185
2.73185
2.73185
2.73185
2.73185
2.73185
2.73185
2.73185
2.73185
2.73185
2.73185
2.73185
2.73185
2.73185
2.73185
2.73185
2.73186
2.73188
2.85851
2.85847
2.85846
2.85845
2.85845
2.85845
2.85845
2.85845
2.85845
2.85845
2.85845
2.85845
2.85845
2.85845
2.85845
2.85845
2.85845
2.85845
2.85845
2.85845
2.85845
2.85845
2.85845
2.85845
2.85845
2.85845
2.85845
2.85845
2.85847
2.8585
2.98508
2.98504
2.98502
2.985
2.985
2.985
2.98499
2.98499
2.98499
2.98499
2.98499
2.98499
2.98499
2.98499
2.98499
2.98499
2.98499
2.98499
2.98499
2.98499
2.98499
2.98499
2.98499
2.98499
2.985
2.985
2.985
2.98501
2.98504
2.98508
3.11158
3.11153
3.11149
3.11148
3.11147
3.11146
3.11146
3.11146
3.11146
3.11146
3.11146
3.11146
3.11146
3.11146
3.11146
3.11146
3.11146
3.11146
3.11146
3.11146
3.11146
3.11146
3.11146
3.11146
3.11146
3.11147
3.11148
3.11149
3.11152
3.11157
3.2379
3.23784
3.2378
3.23777
3.23776
3.23775
3.23774
3.23774
3.23774
3.23774
3.23774
3.23774
3.23774
3.23774
3.23774
3.23774
3.23774
3.23774
3.23774
3.23774
3.23774
3.23774
3.23774
3.23774
3.23775
3.23776
3.23777
3.2378
3.23783
3.23789
3.36376
3.36369
3.36364
3.36361
3.36359
3.36357
3.36357
3.36356
3.36356
3.36356
3.36356
3.36356
3.36356
3.36356
3.36356
3.36356
3.36356
3.36356
3.36356
3.36356
3.36356
3.36356
3.36356
3.36357
3.36357
3.36359
3.36361
3.36364
3.36368
3.36375
3.48823
3.48815
3.48809
3.48805
3.48803
3.48801
3.488
3.48799
3.48799
3.48799
3.48798
3.48798
3.48798
3.48798
3.48798
3.48798
3.48798
3.48798
3.48798
3.48798
3.48799
3.48799
3.48799
3.488
3.48801
3.48803
3.48805
3.48809
3.48815
3.48822
3.60783
3.60774
3.60768
3.60763
3.6076
3.60758
3.60757
3.60756
3.60755
3.60755
3.60755
3.60755
3.60755
3.60755
3.60755
3.60755
3.60755
3.60755
3.60755
3.60755
3.60755
3.60755
3.60756
3.60757
3.60758
3.6076
3.60764
3.60768
3.60774
3.60782
3.7072
3.70711
3.70704
3.70699
3.70696
3.70693
3.70692
3.70691
3.7069
3.7069
3.7069
3.7069
3.7069
3.7069
3.7069
3.7069
3.7069
3.7069
3.7069
3.7069
3.7069
3.7069
3.70691
3.70692
3.70693
3.70696
3.70699
3.70704
3.70711
3.70719
0.0554236
0.0554236
0.0554236
0.0554236
0.0554236
0.0554235
0.0554234
0.0554233
0.0554231
0.0554229
0.0554228
0.0554227
0.0554225
0.0554223
0.0554221
0.0554221
0.0554221
0.0554223
0.0554225
0.0554228
0.0554232
0.0554235
0.0554239
0.0554241
0.0554241
0.0554239
0.0554237
0.0554235
0.0554235
0.0554233
0.196669
0.19667
0.19667
0.19667
0.19667
0.19667
0.19667
0.19667
0.19667
0.19667
0.19667
0.19667
0.19667
0.19667
0.19667
0.19667
0.19667
0.19667
0.196671
0.196671
0.196671
0.196671
0.19667
0.19667
0.19667
0.19667
0.19667
0.19667
0.19667
0.196669
0.323716
0.323715
0.323715
0.323715
0.323716
0.323716
0.323716
0.323716
0.323717
0.323717
0.323717
0.323717
0.323717
0.323717
0.323717
0.323717
0.323717
0.323717
0.323717
0.323717
0.323717
0.323717
0.323716
0.323716
0.323716
0.323715
0.323715
0.323716
0.323716
0.323717
0.450759
0.450758
0.450758
0.450759
0.450759
0.45076
0.450761
0.450761
0.450761
0.450762
0.450762
0.450762
0.450763
0.450763
0.450763
0.450763
0.450763
0.450763
0.450762
0.450762
0.450762
0.450761
0.450761
0.45076
0.45076
0.450759
0.450759
0.450758
0.450759
0.450759
0.577573
0.577573
0.577573
0.577574
0.577576
0.577577
0.577578
0.577578
0.577579
0.57758
0.577581
0.577581
0.577582
0.577582
0.577582
0.577582
0.577582
0.577582
0.577581
0.57758
0.57758
0.577579
0.577578
0.577578
0.577576
0.577575
0.577574
0.577573
0.577573
0.577573
0.704326
0.704326
0.704328
0.70433
0.704331
0.704333
0.704334
0.704336
0.704337
0.704338
0.70434
0.704341
0.704341
0.704342
0.704342
0.704342
0.704342
0.704341
0.70434
0.704339
0.704339
0.704338
0.704336
0.704335
0.704333
0.704331
0.704329
0.704328
0.704327
0.704327
0.831073
0.831073
0.831075
0.831078
0.831081
0.831084
0.831086
0.831088
0.831089
0.831091
0.831093
0.831094
0.831095
0.831096
0.831097
0.831097
0.831096
0.831095
0.831094
0.831093
0.831092
0.83109
0.831088
0.831086
0.831083
0.831081
0.831078
0.831075
0.831073
0.831073
0.957827
0.957828
0.957831
0.957835
0.957839
0.957843
0.957846
0.957849
0.957851
0.957853
0.957855
0.957857
0.957858
0.957859
0.95786
0.95786
0.957859
0.957858
0.957857
0.957855
0.957854
0.957852
0.957849
0.957846
0.957843
0.957839
0.957835
0.957831
0.957827
0.957826
1.08459
1.08459
1.08459
1.0846
1.08461
1.08461
1.08461
1.08462
1.08462
1.08462
1.08463
1.08463
1.08463
1.08463
1.08463
1.08463
1.08463
1.08463
1.08463
1.08462
1.08462
1.08462
1.08462
1.08461
1.08461
1.0846
1.0846
1.08459
1.08459
1.08459
1.21135
1.21135
1.21136
1.21136
1.21137
1.21138
1.21138
1.21139
1.21139
1.21139
1.2114
1.2114
1.2114
1.2114
1.2114
1.2114
1.2114
1.2114
1.2114
1.2114
1.21139
1.21139
1.21139
1.21138
1.21138
1.21137
1.21136
1.21136
1.21135
1.21135
1.3381
1.3381
1.33811
1.33812
1.33813
1.33814
1.33815
1.33815
1.33816
1.33816
1.33816
1.33817
1.33817
1.33817
1.33817
1.33817
1.33817
1.33817
1.33816
1.33816
1.33816
1.33816
1.33815
1.33815
1.33814
1.33813
1.33812
1.33811
1.3381
1.3381
1.46485
1.46485
1.46486
1.46487
1.46489
1.4649
1.4649
1.46491
1.46491
1.46492
1.46492
1.46492
1.46492
1.46492
1.46492
1.46492
1.46492
1.46492
1.46492
1.46492
1.46492
1.46491
1.46491
1.4649
1.4649
1.46489
1.46487
1.46486
1.46485
1.46485
1.59158
1.59158
1.59159
1.5916
1.59162
1.59163
1.59164
1.59164
1.59165
1.59165
1.59165
1.59166
1.59166
1.59166
1.59166
1.59166
1.59166
1.59166
1.59166
1.59165
1.59165
1.59165
1.59164
1.59164
1.59163
1.59162
1.5916
1.59159
1.59157
1.59157
1.71828
1.71828
1.71829
1.71831
1.71832
1.71834
1.71835
1.71835
1.71836
1.71836
1.71836
1.71836
1.71837
1.71837
1.71837
1.71837
1.71837
1.71837
1.71836
1.71836
1.71836
1.71836
1.71835
1.71835
1.71834
1.71832
1.71831
1.71829
1.71828
1.71828
1.84496
1.84495
1.84496
1.84498
1.84499
1.84501
1.84502
1.84503
1.84503
1.84503
1.84504
1.84504
1.84504
1.84504
1.84504
1.84504
1.84504
1.84504
1.84504
1.84504
1.84503
1.84503
1.84503
1.84502
1.84501
1.84499
1.84498
1.84496
1.84495
1.84495
1.9716
1.97158
1.97159
1.97161
1.97163
1.97164
1.97165
1.97166
1.97166
1.97167
1.97167
1.97167
1.97167
1.97167
1.97167
1.97167
1.97167
1.97167
1.97167
1.97167
1.97167
1.97166
1.97166
1.97165
1.97164
1.97163
1.97161
1.97159
1.97158
1.97159
2.0982
2.09817
2.09818
2.09819
2.09821
2.09822
2.09824
2.09824
2.09825
2.09825
2.09825
2.09825
2.09825
2.09825
2.09825
2.09825
2.09825
2.09825
2.09825
2.09825
2.09825
2.09825
2.09824
2.09823
2.09822
2.09821
2.09819
2.09817
2.09817
2.09819
2.22475
2.22471
2.22471
2.22472
2.22474
2.22475
2.22476
2.22477
2.22477
2.22477
2.22478
2.22478
2.22478
2.22478
2.22478
2.22478
2.22478
2.22478
2.22478
2.22478
2.22477
2.22477
2.22477
2.22476
2.22475
2.22474
2.22472
2.22471
2.22471
2.22474
2.35125
2.3512
2.35118
2.35119
2.3512
2.35121
2.35122
2.35123
2.35123
2.35123
2.35123
2.35124
2.35124
2.35124
2.35124
2.35124
2.35124
2.35124
2.35124
2.35123
2.35123
2.35123
2.35123
2.35122
2.35121
2.3512
2.35119
2.35118
2.35119
2.35124
2.47769
2.47762
2.47759
2.47759
2.4776
2.4776
2.47761
2.47762
2.47762
2.47762
2.47762
2.47762
2.47762
2.47762
2.47762
2.47762
2.47762
2.47762
2.47762
2.47762
2.47762
2.47762
2.47762
2.47761
2.4776
2.4776
2.47759
2.47759
2.47761
2.47768
2.60406
2.60396
2.60392
2.60391
2.60391
2.60392
2.60392
2.60392
2.60392
2.60393
2.60393
2.60393
2.60393
2.60393
2.60393
2.60393
2.60393
2.60393
2.60393
2.60393
2.60393
2.60392
2.60392
2.60392
2.60391
2.60391
2.60391
2.60392
2.60396
2.60404
2.73035
2.73023
2.73017
2.73014
2.73013
2.73013
2.73013
2.73013
2.73013
2.73013
2.73013
2.73014
2.73014
2.73014
2.73014
2.73014
2.73014
2.73014
2.73014
2.73013
2.73013
2.73013
2.73013
2.73013
2.73013
2.73013
2.73014
2.73017
2.73022
2.73033
2.85654
2.85639
2.8563
2.85626
2.85624
2.85623
2.85623
2.85622
2.85622
2.85622
2.85622
2.85622
2.85622
2.85622
2.85622
2.85622
2.85622
2.85622
2.85622
2.85622
2.85622
2.85622
2.85622
2.85623
2.85623
2.85624
2.85626
2.8563
2.85638
2.85652
2.98257
2.98239
2.98228
2.98221
2.98218
2.98216
2.98215
2.98214
2.98214
2.98214
2.98214
2.98214
2.98214
2.98214
2.98214
2.98214
2.98214
2.98214
2.98214
2.98214
2.98214
2.98214
2.98214
2.98215
2.98216
2.98218
2.98221
2.98227
2.98238
2.98255
3.10832
3.1081
3.10796
3.10788
3.10782
3.10779
3.10778
3.10777
3.10776
3.10776
3.10776
3.10776
3.10776
3.10776
3.10776
3.10776
3.10776
3.10776
3.10776
3.10776
3.10776
3.10776
3.10777
3.10778
3.1078
3.10783
3.10788
3.10796
3.10809
3.1083
3.23346
3.2332
3.23303
3.23292
3.23285
3.2328
3.23278
3.23276
3.23275
3.23275
3.23275
3.23275
3.23275
3.23275
3.23275
3.23275
3.23275
3.23275
3.23275
3.23275
3.23275
3.23275
3.23276
3.23278
3.2328
3.23285
3.23292
3.23303
3.23319
3.23343
3.35707
3.35677
3.35657
3.35643
3.35634
3.35628
3.35625
3.35623
3.35622
3.35621
3.35621
3.3562
3.3562
3.3562
3.3562
3.3562
3.3562
3.3562
3.3562
3.35621
3.35621
3.35622
3.35623
3.35625
3.35629
3.35634
3.35644
3.35657
3.35677
3.35704
3.47663
3.4763
3.47607
3.47591
3.4758
3.47573
3.47568
3.47565
3.47564
3.47563
3.47563
3.47563
3.47562
3.47562
3.47562
3.47562
3.47562
3.47562
3.47563
3.47563
3.47563
3.47564
3.47566
3.47568
3.47573
3.4758
3.47592
3.47608
3.4763
3.4766
3.58497
3.58463
3.58438
3.58419
3.58407
3.58398
3.58393
3.5839
3.58388
3.58387
3.58387
3.58386
3.58386
3.58386
3.58386
3.58386
3.58386
3.58386
3.58386
3.58387
3.58387
3.58388
3.5839
3.58393
3.58399
3.58407
3.5842
3.58439
3.58464
3.58496
3.66216
3.66182
3.66156
3.66137
3.66124
3.66115
3.66109
3.66106
3.66104
3.66103
3.66102
3.66102
3.66102
3.66102
3.66102
3.66102
3.66102
3.66102
3.66102
3.66102
3.66103
3.66104
3.66106
3.66109
3.66115
3.66125
3.66138
3.66158
3.66183
3.66216
0.0526358
0.0526354
0.0526354
0.0526354
0.0526353
0.0526351
0.0526347
0.0526344
0.052634
0.0526337
0.0526334
0.0526333
0.0526331
0.0526329
0.0526328
0.0526328
0.0526328
0.052633
0.0526333
0.0526337
0.0526342
0.0526348
0.0526353
0.0526356
0.0526356
0.0526355
0.0526355
0.0526355
0.0526356
0.0526358
0.198102
0.198102
0.198102
0.198102
0.198102
0.198102
0.198102
0.198103
0.198103
0.198104
0.198104
0.198104
0.198104
0.198104
0.198104
0.198104
0.198104
0.198104
0.198104
0.198104
0.198104
0.198104
0.198103
0.198103
0.198102
0.198102
0.198102
0.198103
0.198103
0.198103
0.324577
0.324575
0.324575
0.324575
0.324575
0.324576
0.324576
0.324576
0.324577
0.324577
0.324577
0.324577
0.324577
0.324577
0.324577
0.324577
0.324577
0.324577
0.324577
0.324577
0.324577
0.324577
0.324576
0.324576
0.324575
0.324575
0.324575
0.324575
0.324576
0.324578
0.451499
0.451498
0.451499
0.4515
0.451501
0.451502
0.451502
0.451503
0.451504
0.451504
0.451505
0.451505
0.451505
0.451505
0.451505
0.451505
0.451505
0.451505
0.451505
0.451504
0.451504
0.451503
0.451503
0.451502
0.451501
0.4515
0.4515
0.451499
0.451499
0.4515
0.578265
0.578264
0.578266
0.578268
0.57827
0.578272
0.578273
0.578275
0.578276
0.578277
0.578278
0.578278
0.578279
0.578279
0.57828
0.57828
0.57828
0.578279
0.578278
0.578278
0.578277
0.578276
0.578275
0.578273
0.578272
0.57827
0.578268
0.578266
0.578265
0.578265
0.704949
0.70495
0.704953
0.704957
0.70496
0.704963
0.704966
0.704968
0.70497
0.704971
0.704973
0.704974
0.704975
0.704976
0.704977
0.704977
0.704976
0.704975
0.704974
0.704973
0.704972
0.70497
0.704968
0.704966
0.704963
0.70496
0.704956
0.704953
0.70495
0.704949
0.83162
0.831621
0.831626
0.831633
0.831639
0.831643
0.831647
0.83165
0.831653
0.831655
0.831658
0.83166
0.831661
0.831662
0.831663
0.831663
0.831662
0.831661
0.83166
0.831658
0.831656
0.831654
0.831651
0.831647
0.831643
0.831638
0.831632
0.831626
0.83162
0.831619
0.9583
0.958302
0.958311
0.958321
0.95833
0.958337
0.958342
0.958347
0.95835
0.958353
0.958356
0.958359
0.95836
0.958362
0.958362
0.958362
0.958361
0.95836
0.958358
0.958356
0.958354
0.958351
0.958347
0.958342
0.958336
0.958329
0.95832
0.95831
0.958302
0.958299
1.08499
1.08499
1.085
1.08502
1.08503
1.08504
1.08505
1.08505
1.08506
1.08506
1.08507
1.08507
1.08507
1.08507
1.08507
1.08507
1.08507
1.08507
1.08507
1.08507
1.08506
1.08506
1.08505
1.08505
1.08504
1.08503
1.08502
1.085
1.08499
1.08499
1.21168
1.21168
1.21169
1.21171
1.21173
1.21174
1.21175
1.21176
1.21177
1.21177
1.21177
1.21178
1.21178
1.21178
1.21178
1.21178
1.21178
1.21178
1.21178
1.21177
1.21177
1.21177
1.21176
1.21175
1.21174
1.21173
1.21171
1.21169
1.21168
1.21167
1.33835
1.33835
1.33837
1.33839
1.33841
1.33843
1.33844
1.33845
1.33846
1.33846
1.33847
1.33847
1.33847
1.33847
1.33847
1.33847
1.33847
1.33847
1.33847
1.33847
1.33846
1.33846
1.33845
1.33844
1.33843
1.33841
1.33839
1.33837
1.33835
1.33835
1.46499
1.46499
1.46501
1.46504
1.46507
1.46509
1.4651
1.46511
1.46512
1.46512
1.46513
1.46513
1.46513
1.46513
1.46514
1.46514
1.46513
1.46513
1.46513
1.46513
1.46512
1.46512
1.46511
1.4651
1.46509
1.46507
1.46504
1.46501
1.46499
1.46499
1.5916
1.59159
1.59161
1.59164
1.59167
1.5917
1.59171
1.59173
1.59173
1.59174
1.59174
1.59175
1.59175
1.59175
1.59175
1.59175
1.59175
1.59175
1.59175
1.59174
1.59174
1.59173
1.59173
1.59171
1.5917
1.59167
1.59164
1.59161
1.59159
1.59159
1.71815
1.71813
1.71815
1.71819
1.71822
1.71825
1.71826
1.71828
1.71829
1.71829
1.7183
1.7183
1.7183
1.7183
1.7183
1.7183
1.7183
1.7183
1.7183
1.71829
1.71829
1.71829
1.71828
1.71826
1.71825
1.71822
1.71819
1.71815
1.71813
1.71815
1.84464
1.84461
1.84462
1.84466
1.84469
1.84472
1.84474
1.84475
1.84476
1.84476
1.84477
1.84477
1.84477
1.84477
1.84478
1.84478
1.84477
1.84477
1.84477
1.84477
1.84476
1.84476
1.84475
1.84474
1.84472
1.84469
1.84465
1.84462
1.8446
1.84463
1.97106
1.971
1.97101
1.97103
1.97107
1.9711
1.97112
1.97113
1.97114
1.97114
1.97115
1.97115
1.97115
1.97115
1.97115
1.97115
1.97115
1.97115
1.97115
1.97115
1.97114
1.97114
1.97113
1.97112
1.9711
1.97107
1.97103
1.971
1.971
1.97104
2.09738
2.0973
2.09729
2.09731
2.09734
2.09736
2.09738
2.0974
2.0974
2.09741
2.09741
2.09741
2.09741
2.09742
2.09742
2.09742
2.09742
2.09742
2.09741
2.09741
2.09741
2.0974
2.0974
2.09738
2.09736
2.09734
2.09731
2.09729
2.09729
2.09736
2.2236
2.22349
2.22346
2.22347
2.22349
2.22351
2.22353
2.22354
2.22354
2.22355
2.22355
2.22355
2.22355
2.22355
2.22355
2.22355
2.22355
2.22355
2.22355
2.22355
2.22355
2.22354
2.22354
2.22353
2.22351
2.22349
2.22346
2.22345
2.22348
2.22358
2.34971
2.34955
2.3495
2.34949
2.3495
2.34951
2.34953
2.34954
2.34954
2.34954
2.34955
2.34955
2.34955
2.34955
2.34955
2.34955
2.34955
2.34955
2.34955
2.34955
2.34954
2.34954
2.34954
2.34953
2.34951
2.3495
2.34949
2.34949
2.34955
2.34968
2.47568
2.47548
2.47539
2.47536
2.47536
2.47537
2.47537
2.47538
2.47538
2.47539
2.47539
2.47539
2.47539
2.47539
2.47539
2.47539
2.47539
2.47539
2.47539
2.47539
2.47539
2.47538
2.47538
2.47537
2.47537
2.47536
2.47536
2.47539
2.47548
2.47566
2.60151
2.60126
2.60113
2.60107
2.60105
2.60104
2.60104
2.60105
2.60105
2.60105
2.60105
2.60105
2.60105
2.60105
2.60105
2.60105
2.60105
2.60105
2.60105
2.60105
2.60105
2.60105
2.60105
2.60104
2.60104
2.60105
2.60107
2.60113
2.60125
2.60148
2.72717
2.72685
2.72668
2.72658
2.72654
2.72652
2.72651
2.72651
2.7265
2.7265
2.7265
2.7265
2.7265
2.7265
2.7265
2.7265
2.7265
2.7265
2.7265
2.7265
2.7265
2.7265
2.72651
2.72651
2.72652
2.72654
2.72658
2.72667
2.72684
2.72714
2.85261
2.85222
2.85199
2.85185
2.85178
2.85174
2.85172
2.85171
2.8517
2.8517
2.8517
2.8517
2.8517
2.8517
2.8517
2.8517
2.8517
2.8517
2.8517
2.8517
2.8517
2.8517
2.85171
2.85172
2.85174
2.85178
2.85185
2.85199
2.85221
2.85257
2.97771
2.97725
2.97695
2.97677
2.97667
2.9766
2.97657
2.97655
2.97654
2.97654
2.97653
2.97653
2.97653
2.97653
2.97653
2.97653
2.97653
2.97653
2.97653
2.97653
2.97654
2.97654
2.97655
2.97657
2.97661
2.97667
2.97678
2.97695
2.97724
2.97767
3.10222
3.10168
3.10132
3.10108
3.10094
3.10085
3.1008
3.10078
3.10076
3.10075
3.10075
3.10074
3.10074
3.10074
3.10074
3.10074
3.10074
3.10074
3.10074
3.10075
3.10075
3.10076
3.10078
3.10081
3.10086
3.10095
3.10109
3.10132
3.10167
3.10218
3.2255
3.22487
3.22444
3.22416
3.22397
3.22386
3.22379
3.22375
3.22372
3.22371
3.22371
3.2237
3.2237
3.2237
3.2237
3.2237
3.2237
3.2237
3.2237
3.22371
3.22371
3.22373
3.22375
3.22379
3.22386
3.22398
3.22417
3.22446
3.22488
3.22547
3.34596
3.34526
3.34476
3.34442
3.34419
3.34404
3.34395
3.3439
3.34387
3.34385
3.34384
3.34384
3.34384
3.34384
3.34384
3.34384
3.34384
3.34384
3.34384
3.34384
3.34385
3.34387
3.3439
3.34396
3.34405
3.3442
3.34443
3.34478
3.34527
3.34593
3.45974
3.45897
3.45841
3.45802
3.45775
3.45757
3.45746
3.4574
3.45736
3.45734
3.45733
3.45733
3.45733
3.45733
3.45733
3.45733
3.45733
3.45733
3.45733
3.45733
3.45734
3.45736
3.4574
3.45747
3.45758
3.45777
3.45804
3.45844
3.45899
3.45972
3.55781
3.55701
3.55641
3.55598
3.55568
3.55548
3.55536
3.55528
3.55524
3.55522
3.55521
3.5552
3.5552
3.5552
3.5552
3.5552
3.5552
3.5552
3.5552
3.55521
3.55522
3.55524
3.55529
3.55537
3.5555
3.5557
3.55601
3.55645
3.55705
3.55781
3.62136
3.62057
3.61997
3.61953
3.61922
3.61901
3.61888
3.6188
3.61876
3.61873
3.61872
3.61872
3.61871
3.61871
3.61871
3.61871
3.61871
3.61871
3.61872
3.61872
3.61873
3.61876
3.61881
3.61889
3.61903
3.61924
3.61956
3.62002
3.62062
3.62138
0.0504388
0.0504378
0.0504377
0.0504375
0.0504372
0.0504368
0.0504362
0.0504356
0.050435
0.0504345
0.0504342
0.050434
0.0504337
0.0504335
0.0504334
0.0504333
0.0504334
0.0504336
0.050434
0.0504345
0.0504353
0.0504361
0.0504367
0.0504371
0.0504374
0.0504376
0.0504378
0.0504381
0.0504383
0.0504389
0.19988
0.199881
0.19988
0.19988
0.199881
0.199881
0.199882
0.199883
0.199884
0.199885
0.199885
0.199886
0.199886
0.199886
0.199886
0.199886
0.199886
0.199886
0.199886
0.199886
0.199885
0.199884
0.199883
0.199882
0.199882
0.199881
0.199881
0.199881
0.199882
0.199881
0.325768
0.325767
0.325767
0.325767
0.325768
0.325768
0.325769
0.32577
0.32577
0.325771
0.325771
0.325771
0.325771
0.325771
0.325771
0.325771
0.325771
0.325771
0.325771
0.325771
0.32577
0.32577
0.325769
0.325769
0.325768
0.325768
0.325768
0.325767
0.325767
0.325769
0.452435
0.452435
0.452437
0.452439
0.45244
0.452442
0.452443
0.452444
0.452445
0.452445
0.452446
0.452446
0.452446
0.452446
0.452447
0.452447
0.452447
0.452446
0.452446
0.452446
0.452445
0.452444
0.452443
0.452443
0.452442
0.45244
0.452439
0.452437
0.452436
0.452435
0.579115
0.579116
0.57912
0.579124
0.579128
0.579131
0.579133
0.579135
0.579136
0.579138
0.579139
0.57914
0.579141
0.579141
0.579142
0.579142
0.579142
0.579141
0.57914
0.579139
0.579138
0.579137
0.579135
0.579133
0.579131
0.579128
0.579124
0.57912
0.579116
0.579115
0.705711
0.705713
0.705721
0.705728
0.705735
0.70574
0.705744
0.705747
0.70575
0.705752
0.705754
0.705756
0.705758
0.705759
0.70576
0.70576
0.705759
0.705758
0.705757
0.705755
0.705753
0.705751
0.705748
0.705745
0.70574
0.705735
0.705728
0.70572
0.705713
0.70571
0.832276
0.83228
0.832292
0.832305
0.832316
0.832325
0.832331
0.832336
0.83234
0.832343
0.832346
0.832349
0.832351
0.832352
0.832353
0.832353
0.832352
0.832351
0.832349
0.832347
0.832344
0.832341
0.832337
0.832331
0.832324
0.832316
0.832304
0.832291
0.832279
0.832275
0.958843
0.958848
0.958865
0.958885
0.958902
0.958915
0.958925
0.958932
0.958937
0.958941
0.958945
0.958948
0.958951
0.958952
0.958953
0.958953
0.958952
0.95895
0.958948
0.958945
0.958942
0.958937
0.958932
0.958924
0.958915
0.958902
0.958884
0.958865
0.958847
0.958841
1.08541
1.08541
1.08544
1.08547
1.08549
1.08551
1.08552
1.08553
1.08554
1.08554
1.08555
1.08555
1.08555
1.08555
1.08556
1.08556
1.08555
1.08555
1.08555
1.08555
1.08554
1.08554
1.08553
1.08552
1.08551
1.08549
1.08546
1.08544
1.08541
1.08541
1.21196
1.21196
1.21199
1.21203
1.21206
1.21208
1.2121
1.21211
1.21212
1.21213
1.21213
1.21213
1.21214
1.21214
1.21214
1.21214
1.21214
1.21214
1.21213
1.21213
1.21213
1.21212
1.21211
1.2121
1.21208
1.21206
1.21203
1.21199
1.21196
1.21196
1.33848
1.33847
1.3385
1.33855
1.33859
1.33862
1.33864
1.33865
1.33866
1.33867
1.33867
1.33868
1.33868
1.33868
1.33868
1.33868
1.33868
1.33868
1.33868
1.33867
1.33867
1.33866
1.33865
1.33864
1.33862
1.33858
1.33855
1.3385
1.33847
1.33847
1.46493
1.46492
1.46495
1.465
1.46505
1.46508
1.46511
1.46512
1.46513
1.46514
1.46515
1.46515
1.46515
1.46516
1.46516
1.46516
1.46516
1.46515
1.46515
1.46515
1.46514
1.46513
1.46512
1.46511
1.46508
1.46504
1.465
1.46495
1.46491
1.46493
1.59131
1.59128
1.59131
1.59136
1.59141
1.59145
1.59148
1.5915
1.59151
1.59152
1.59152
1.59153
1.59153
1.59153
1.59153
1.59153
1.59153
1.59153
1.59153
1.59152
1.59152
1.59151
1.5915
1.59148
1.59145
1.59141
1.59136
1.59131
1.59127
1.5913
1.71759
1.71753
1.71755
1.7176
1.71765
1.7177
1.71773
1.71775
1.71776
1.71777
1.71778
1.71778
1.71778
1.71778
1.71779
1.71779
1.71778
1.71778
1.71778
1.71778
1.71777
1.71776
1.71775
1.71773
1.7177
1.71765
1.7176
1.71755
1.71753
1.71758
1.84375
1.84365
1.84366
1.8437
1.84375
1.84379
1.84383
1.84385
1.84386
1.84387
1.84387
1.84388
1.84388
1.84388
1.84388
1.84388
1.84388
1.84388
1.84388
1.84387
1.84387
1.84386
1.84385
1.84383
1.84379
1.84375
1.8437
1.84365
1.84365
1.84373
1.96976
1.96962
1.9696
1.96963
1.96967
1.96971
1.96974
1.96976
1.96978
1.96979
1.96979
1.96979
1.9698
1.9698
1.9698
1.9698
1.9698
1.9698
1.96979
1.96979
1.96978
1.96978
1.96976
1.96974
1.96971
1.96967
1.96963
1.9696
1.96962
1.96974
2.0956
2.09541
2.09535
2.09536
2.09539
2.09543
2.09545
2.09547
2.09548
2.09549
2.09549
2.0955
2.0955
2.0955
2.0955
2.0955
2.0955
2.0955
2.0955
2.09549
2.09549
2.09548
2.09547
2.09545
2.09543
2.09539
2.09536
2.09535
2.09541
2.09558
2.22126
2.221
2.2209
2.22088
2.22089
2.22091
2.22093
2.22094
2.22095
2.22096
2.22096
2.22096
2.22096
2.22096
2.22097
2.22097
2.22097
2.22096
2.22096
2.22096
2.22096
2.22095
2.22094
2.22093
2.22091
2.22089
2.22088
2.2209
2.221
2.22123
2.3467
2.34637
2.34621
2.34615
2.34613
2.34614
2.34615
2.34616
2.34616
2.34617
2.34617
2.34617
2.34617
2.34617
2.34617
2.34617
2.34617
2.34617
2.34617
2.34617
2.34617
2.34617
2.34616
2.34615
2.34614
2.34614
2.34615
2.34621
2.34636
2.34667
2.47191
2.47148
2.47125
2.47114
2.4711
2.47109
2.47109
2.47109
2.47109
2.47109
2.47109
2.47109
2.47109
2.47109
2.47109
2.47109
2.47109
2.47109
2.47109
2.47109
2.47109
2.47109
2.47109
2.47109
2.47109
2.4711
2.47115
2.47125
2.47148
2.47188
2.59685
2.59631
2.596
2.59584
2.59575
2.59572
2.5957
2.59569
2.59569
2.59569
2.59569
2.59569
2.59569
2.59569
2.59569
2.59569
2.59569
2.59569
2.59569
2.59569
2.59569
2.59569
2.59569
2.5957
2.59572
2.59576
2.59584
2.59601
2.59631
2.59681
2.72147
2.72081
2.72041
2.72018
2.72005
2.71998
2.71994
2.71993
2.71992
2.71991
2.71991
2.71991
2.71991
2.71991
2.71991
2.71991
2.71991
2.71991
2.71991
2.71991
2.71992
2.71992
2.71993
2.71995
2.71998
2.72005
2.72018
2.72042
2.72081
2.72143
2.84569
2.8449
2.84439
2.84408
2.8439
2.84379
2.84374
2.84371
2.84369
2.84368
2.84368
2.84367
2.84367
2.84367
2.84367
2.84367
2.84367
2.84367
2.84367
2.84368
2.84368
2.84369
2.84371
2.84374
2.8438
2.8439
2.84409
2.8444
2.8449
2.84565
2.96933
2.96839
2.96777
2.96737
2.96712
2.96698
2.9669
2.96685
2.96682
2.96681
2.9668
2.9668
2.9668
2.9668
2.9668
2.9668
2.9668
2.9668
2.9668
2.9668
2.96681
2.96683
2.96685
2.9669
2.96699
2.96714
2.96739
2.96779
2.9684
2.96929
3.09197
3.09088
3.09013
3.08964
3.08932
3.08913
3.08902
3.08896
3.08892
3.0889
3.08889
3.08889
3.08888
3.08888
3.08888
3.08888
3.08888
3.08888
3.08889
3.08889
3.0889
3.08892
3.08896
3.08903
3.08914
3.08934
3.08967
3.09016
3.0909
3.09194
3.21266
3.21141
3.21054
3.20995
3.20956
3.20931
3.20917
3.20908
3.20904
3.20901
3.209
3.20899
3.20899
3.20899
3.20899
3.20899
3.20899
3.20899
3.20899
3.209
3.20901
3.20904
3.20909
3.20918
3.20933
3.20958
3.20998
3.21058
3.21145
3.21263
3.3292
3.32782
3.32683
3.32614
3.32567
3.32538
3.3252
3.32509
3.32503
3.325
3.32498
3.32497
3.32497
3.32497
3.32497
3.32497
3.32497
3.32497
3.32497
3.32498
3.325
3.32503
3.3251
3.32521
3.3254
3.32571
3.32619
3.32689
3.32788
3.32919
3.43687
3.43539
3.4343
3.43352
3.43299
3.43264
3.43243
3.4323
3.43223
3.43219
3.43217
3.43216
3.43216
3.43216
3.43216
3.43216
3.43216
3.43216
3.43216
3.43217
3.43219
3.43223
3.43231
3.43244
3.43267
3.43303
3.43358
3.43438
3.43547
3.43689
3.52616
3.52463
3.52348
3.52265
3.52206
3.52168
3.52144
3.5213
3.52122
3.52118
3.52116
3.52115
3.52114