/*--------------------------------*- C++ -*----------------------------------*\
| =========                 |                                                 |
| \\      /  F ield         | OpenFOAM: The Open Source CFD Toolbox           |
|  \\    /   O peration     | Version:  2506                                  |
|   \\  /    A nd           | Website:  www.openfoam.com                      |
|    \\/     M anipulation  |                                                 |
\*---------------------------------------------------------------------------*/
FoamFile
{
    version     2.0;
    format      ascii;
    arch        "LSB;label=32;scalar=64";
    class       volScalarField;
    location    "30";
    object      p;
}
// * * * * * * * * * * * * * * * * * * * * * * * * * * * * * * * * * * * * * //

dimensions      [0 2 -2 0 0 0 0];

internalField   nonuniform List<scalar> 
144676
(
0.194787
0.195025
0.195341
0.195782
0.196349
0.197037
0.197825
0.198676
0.199546
0.200387
0.201155
0.201814
0.202334
0.202692
0.202872
0.202863
0.202666
0.202286
0.201739
0.201049
0.200253
0.199389
0.198503
0.197637
0.196825
0.196097
0.195474
0.194975
0.194613
0.194364
0.210845
0.211236
0.211558
0.21199
0.212548
0.21323
0.214016
0.214869
0.215739
0.216578
0.217342
0.217997
0.218513
0.218868
0.219046
0.219038
0.218844
0.218469
0.217926
0.217241
0.216449
0.215589
0.214707
0.213845
0.213037
0.212311
0.211691
0.211189
0.210812
0.210403
0.248199
0.248337
0.248602
0.249
0.249534
0.250199
0.250974
0.251816
0.252674
0.253498
0.254246
0.254884
0.255386
0.255731
0.255906
0.255902
0.255718
0.255359
0.254837
0.254174
0.253399
0.252552
0.251679
0.250825
0.250027
0.249316
0.248715
0.248242
0.247919
0.247761
0.27508
0.275318
0.275571
0.275944
0.276454
0.2771
0.277858
0.278682
0.27952
0.280319
0.281039
0.281651
0.282131
0.282461
0.282628
0.282626
0.282456
0.28212
0.281627
0.280992
0.280239
0.27941
0.278553
0.277714
0.276938
0.276253
0.275679
0.275231
0.274917
0.274657
0.297139
0.297322
0.297542
0.297885
0.298371
0.298998
0.299737
0.300539
0.301347
0.302111
0.302794
0.303371
0.30382
0.304126
0.30428
0.304279
0.304122
0.303811
0.303348
0.302741
0.302013
0.301207
0.300374
0.299567
0.298829
0.298185
0.297651
0.29724
0.296959
0.296748
0.315037
0.315189
0.315385
0.315708
0.316177
0.316786
0.317502
0.318273
0.319041
0.319761
0.320399
0.320933
0.321347
0.321626
0.321766
0.321764
0.32162
0.321332
0.320895
0.320313
0.31961
0.318834
0.318041
0.317283
0.316599
0.316005
0.315513
0.315136
0.314879
0.314696
0.329718
0.329843
0.33002
0.330327
0.330777
0.331363
0.332048
0.332778
0.333499
0.334168
0.334758
0.33525
0.335629
0.335886
0.336014
0.336013
0.335881
0.335611
0.335194
0.334634
0.333962
0.333227
0.332488
0.331793
0.331167
0.330621
0.330168
0.329821
0.329593
0.329442
0.341797
0.341903
0.342065
0.342352
0.342776
0.343329
0.343972
0.344653
0.345323
0.345943
0.34649
0.346947
0.347301
0.347543
0.347665
0.347667
0.347543
0.347284
0.346883
0.346347
0.345711
0.345027
0.344347
0.343712
0.343138
0.342632
0.342212
0.341899
0.341703
0.341581
0.351754
0.351842
0.351985
0.352245
0.352635
0.353145
0.35374
0.354372
0.354995
0.355574
0.356088
0.35652
0.356859
0.357092
0.357212
0.357214
0.357094
0.356842
0.356455
0.355947
0.355352
0.354717
0.35409
0.353501
0.352963
0.35249
0.352107
0.351832
0.351671
0.351575
0.35994
0.360011
0.360131
0.360359
0.360711
0.361179
0.361729
0.362317
0.3629
0.363447
0.363936
0.364352
0.364681
0.364908
0.365023
0.365022
0.364901
0.364656
0.364287
0.36381
0.363256
0.362663
0.362072
0.361513
0.361002
0.36056
0.360215
0.359981
0.359849
0.359773
0.366636
0.36669
0.366787
0.366988
0.367307
0.367738
0.368251
0.368802
0.369353
0.369872
0.370339
0.37074
0.371058
0.371277
0.371386
0.371381
0.371262
0.371027
0.37068
0.370235
0.369715
0.369153
0.368587
0.36805
0.367564
0.367156
0.366847
0.366642
0.36653
0.36647
0.372093
0.372129
0.372211
0.372391
0.372684
0.373084
0.373563
0.374082
0.3746
0.375089
0.375533
0.375916
0.376221
0.376431
0.376535
0.376532
0.37642
0.376201
0.375877
0.37546
0.374967
0.37443
0.373889
0.37338
0.372926
0.37255
0.372265
0.372073
0.371972
0.371924
0.376534
0.376557
0.376629
0.37679
0.377058
0.377427
0.377871
0.378353
0.378835
0.379293
0.379711
0.380074
0.380367
0.380572
0.380678
0.380683
0.380584
0.380381
0.380077
0.379682
0.379215
0.378708
0.378202
0.377731
0.377312
0.37696
0.376685
0.376495
0.3764
0.376359
0.380158
0.380171
0.380229
0.380368
0.380603
0.380934
0.381338
0.38178
0.382228
0.382655
0.383049
0.383397
0.383683
0.38389
0.384004
0.38402
0.383934
0.383743
0.383454
0.383081
0.382644
0.382177
0.381717
0.381288
0.380898
0.380561
0.380289
0.380101
0.38001
0.379972
0.383132
0.383133
0.383171
0.383277
0.383474
0.383762
0.384125
0.384531
0.384948
0.385351
0.385728
0.386069
0.386354
0.386566
0.386688
0.386713
0.386634
0.386453
0.38618
0.385833
0.385436
0.385016
0.384601
0.384206
0.383838
0.383513
0.383249
0.383067
0.382981
0.382949
0.385601
0.38559
0.385603
0.385677
0.385834
0.386083
0.386412
0.38679
0.387182
0.387568
0.387934
0.38827
0.388556
0.38877
0.388894
0.38892
0.388846
0.388678
0.38843
0.388119
0.387763
0.387386
0.387005
0.386633
0.386285
0.385979
0.385732
0.385563
0.385482
0.385461
0.387713
0.387693
0.387689
0.387737
0.387864
0.388085
0.388387
0.38874
0.389112
0.389482
0.389836
0.390164
0.390445
0.390653
0.39077
0.390793
0.390726
0.39058
0.390366
0.390094
0.389777
0.389429
0.38907
0.388719
0.388397
0.38812
0.387892
0.387733
0.38766
0.387651
0.389622
0.389602
0.389591
0.389625
0.389736
0.389937
0.390218
0.39055
0.390901
0.391249
0.391586
0.391901
0.392169
0.392362
0.392465
0.392481
0.392424
0.392305
0.392127
0.391892
0.391603
0.391276
0.390936
0.390613
0.390324
0.390071
0.389855
0.389704
0.389639
0.389638
0.391482
0.391465
0.391456
0.391488
0.391594
0.391786
0.392055
0.392371
0.392699
0.393027
0.393348
0.393646
0.393893
0.394062
0.394143
0.394148
0.394098
0.394002
0.393857
0.393651
0.393385
0.393079
0.392766
0.392472
0.392205
0.39196
0.39175
0.391608
0.39155
0.391555
0.393437
0.393423
0.393419
0.393459
0.393574
0.393776
0.394047
0.394355
0.394673
0.39499
0.395297
0.395576
0.395798
0.395936
0.395989
0.395979
0.395933
0.395855
0.395732
0.395548
0.395306
0.395027
0.394739
0.394462
0.394196
0.393947
0.393741
0.39361
0.393556
0.393564
0.395661
0.395644
0.39565
0.395712
0.395857
0.396085
0.396374
0.396693
0.397018
0.397336
0.397637
0.397901
0.398096
0.398203
0.398232
0.398213
0.398172
0.398103
0.397989
0.397818
0.397593
0.397332
0.397057
0.396776
0.396496
0.396239
0.396037
0.395913
0.39586
0.395872
0.398414
0.398394
0.398415
0.398508
0.398691
0.398954
0.399277
0.399625
0.399974
0.400309
0.400616
0.400872
0.40105
0.401142
0.401165
0.401151
0.401113
0.401043
0.400921
0.40074
0.400509
0.400244
0.399961
0.399663
0.399366
0.399102
0.398904
0.398783
0.398735
0.398751
0.402089
0.402064
0.402096
0.402213
0.402427
0.402728
0.403091
0.403479
0.403867
0.404234
0.40456
0.404822
0.405003
0.405103
0.405141
0.40514
0.405105
0.405021
0.40487
0.404652
0.404387
0.404096
0.403787
0.403466
0.403155
0.402892
0.402701
0.402589
0.402551
0.402578
0.407226
0.407182
0.407212
0.407332
0.407561
0.407889
0.408287
0.408721
0.409156
0.409563
0.409916
0.410199
0.410405
0.410534
0.4106
0.410614
0.410574
0.410463
0.410269
0.41
0.409687
0.409353
0.409006
0.40866
0.408343
0.408088
0.407913
0.407824
0.407808
0.407856
0.414522
0.414441
0.414446
0.414547
0.414767
0.415101
0.415525
0.415996
0.416473
0.416917
0.417305
0.417624
0.41787
0.41804
0.418133
0.418153
0.418096
0.417951
0.417712
0.417394
0.41703
0.416643
0.416252
0.415883
0.415569
0.415337
0.415198
0.415151
0.415174
0.415263
0.424889
0.424748
0.424708
0.424763
0.424947
0.425265
0.425693
0.426184
0.426689
0.427169
0.427598
0.42796
0.428248
0.428451
0.428559
0.428572
0.42849
0.428312
0.428037
0.42768
0.427268
0.42683
0.426403
0.426023
0.425724
0.425529
0.425446
0.425463
0.425544
0.425699
0.43952
0.439289
0.439181
0.439165
0.439289
0.439566
0.439973
0.440464
0.44099
0.441503
0.441968
0.442365
0.442681
0.442901
0.443014
0.443017
0.442913
0.442709
0.44241
0.442027
0.441581
0.441109
0.440661
0.440278
0.44
0.439853
0.439841
0.439938
0.440097
0.440342
0.459988
0.459695
0.4595
0.459393
0.459436
0.459651
0.460024
0.460509
0.461046
0.46158
0.462068
0.462485
0.462818
0.463052
0.46317
0.463164
0.463041
0.462818
0.462508
0.462115
0.461655
0.461168
0.460706
0.46032
0.460062
0.459965
0.460025
0.460211
0.460455
0.460755
0.490472
0.490291
0.490028
0.489824
0.489777
0.489931
0.490274
0.490747
0.491281
0.49182
0.492321
0.492758
0.493111
0.49336
0.493482
0.493464
0.493325
0.493092
0.492779
0.492386
0.491926
0.491434
0.490961
0.49057
0.490327
0.490269
0.490398
0.490668
0.490968
0.491156
0.534003
0.533023
0.53259
0.532265
0.532136
0.532244
0.532561
0.533016
0.53354
0.534078
0.534591
0.535047
0.535419
0.535677
0.535794
0.535768
0.535621
0.535381
0.535064
0.534672
0.534216
0.533723
0.533244
0.532853
0.532627
0.53261
0.53281
0.533182
0.533641
0.534633
0.209516
0.209733
0.21003
0.21048
0.211069
0.211789
0.212615
0.213507
0.214416
0.215292
0.216091
0.216774
0.217314
0.217688
0.217878
0.217873
0.217669
0.217271
0.216698
0.215978
0.215147
0.214246
0.213323
0.212419
0.211574
0.210817
0.210174
0.209666
0.209322
0.209094
0.227718
0.227926
0.228208
0.22865
0.229233
0.229951
0.230777
0.231671
0.23258
0.233452
0.234245
0.234923
0.23546
0.235834
0.236025
0.236021
0.23582
0.235427
0.23486
0.234146
0.233319
0.232421
0.231498
0.230594
0.229749
0.228993
0.228352
0.227844
0.22751
0.227283
0.2602
0.260213
0.260455
0.260859
0.261416
0.262116
0.26293
0.263812
0.264706
0.265562
0.266338
0.267001
0.267526
0.267891
0.268079
0.268078
0.267887
0.267513
0.26697
0.266278
0.265467
0.26458
0.263664
0.262766
0.261931
0.261191
0.260573
0.2601
0.259804
0.259769
0.282677
0.282809
0.283039
0.283421
0.283954
0.284633
0.285428
0.28629
0.28716
0.287989
0.288738
0.289377
0.289881
0.29023
0.290407
0.290408
0.290232
0.289884
0.289371
0.288707
0.287919
0.287048
0.286146
0.285266
0.284455
0.283744
0.283157
0.28271
0.282421
0.282261
0.302671
0.302735
0.302928
0.303278
0.303785
0.304443
0.305216
0.30605
0.306887
0.30768
0.308392
0.308995
0.309468
0.30979
0.309953
0.309953
0.309793
0.309471
0.30899
0.308355
0.307591
0.306743
0.305869
0.305026
0.304259
0.303594
0.303052
0.302643
0.302388
0.302289
0.319107
0.319166
0.319341
0.31967
0.320158
0.320793
0.321539
0.322338
0.323134
0.323881
0.324548
0.325108
0.325541
0.325834
0.325981
0.325982
0.325836
0.325538
0.325082
0.324472
0.323736
0.322923
0.322096
0.321311
0.320602
0.319989
0.319489
0.31911
0.318875
0.31878
0.332822
0.332867
0.333026
0.333335
0.3338
0.334407
0.335115
0.33587
0.336617
0.337314
0.337932
0.338447
0.338845
0.339113
0.339248
0.33925
0.339116
0.338835
0.338397
0.337811
0.337109
0.336345
0.335581
0.334864
0.334216
0.333652
0.333188
0.332841
0.332632
0.332555
0.344223
0.344261
0.344404
0.344689
0.345122
0.345689
0.346352
0.347056
0.347752
0.348401
0.348974
0.349452
0.349822
0.350074
0.350203
0.350207
0.350079
0.349806
0.349383
0.348823
0.348162
0.347455
0.346757
0.346101
0.345504
0.34498
0.344553
0.344243
0.344064
0.344004
0.353691
0.353719
0.35384
0.354092
0.354484
0.355005
0.355618
0.356273
0.356923
0.357529
0.358067
0.35852
0.358873
0.359116
0.35924
0.359242
0.359113
0.358845
0.358438
0.357909
0.357294
0.35664
0.355993
0.355381
0.354821
0.354335
0.35395
0.353682
0.353536
0.353493
0.361504
0.361516
0.361611
0.361829
0.36218
0.362656
0.363225
0.363838
0.364448
0.36502
0.365533
0.365967
0.366309
0.366544
0.366662
0.366657
0.366526
0.366265
0.365878
0.365383
0.36481
0.364197
0.363584
0.363
0.36247
0.362022
0.361681
0.361453
0.361336
0.361309
0.367895
0.367892
0.367965
0.368154
0.368473
0.368915
0.369448
0.370025
0.370601
0.371143
0.371632
0.372049
0.372379
0.372604
0.372714
0.372705
0.372576
0.372328
0.371966
0.371505
0.370965
0.370379
0.36979
0.36923
0.368731
0.368321
0.368015
0.367816
0.36772
0.367707
0.373095
0.37308
0.37314
0.37331
0.373605
0.374019
0.374519
0.375062
0.375604
0.376114
0.376575
0.376973
0.377288
0.377502
0.377608
0.377602
0.377483
0.377253
0.376917
0.376483
0.375969
0.375408
0.374845
0.374317
0.373853
0.373474
0.373188
0.373003
0.372921
0.372917
0.377322
0.3773
0.377351
0.377505
0.377776
0.378159
0.378624
0.379129
0.379633
0.380108
0.380541
0.380916
0.381217
0.381426
0.381535
0.381539
0.381435
0.381224
0.380908
0.380497
0.380009
0.379481
0.378957
0.378468
0.378037
0.377678
0.3774
0.37722
0.377144
0.377142
0.380767
0.380739
0.380777
0.380907
0.381146
0.381491
0.381917
0.382382
0.382848
0.38329
0.383696
0.384053
0.384346
0.384557
0.384674
0.384691
0.384601
0.384404
0.384104
0.383717
0.383264
0.38278
0.382302
0.381853
0.381447
0.381101
0.380827
0.38065
0.380577
0.380575
0.383586
0.383548
0.383565
0.383662
0.383862
0.384167
0.384552
0.384981
0.385416
0.385832
0.386219
0.386565
0.386856
0.387072
0.387198
0.387223
0.387142
0.386956
0.386677
0.386321
0.385912
0.385476
0.385039
0.38462
0.384236
0.383904
0.383639
0.383471
0.383402
0.383405
0.385913
0.385864
0.385857
0.385924
0.386088
0.386354
0.386707
0.387107
0.387517
0.387913
0.388286
0.388627
0.388917
0.389134
0.389262
0.38929
0.389216
0.389048
0.388798
0.388483
0.388117
0.387718
0.387312
0.386919
0.386558
0.386247
0.386
0.385844
0.385783
0.385793
0.387889
0.387835
0.387814
0.387859
0.387996
0.388235
0.388561
0.388936
0.389323
0.389701
0.39006
0.390392
0.390675
0.390885
0.391005
0.391031
0.390969
0.390829
0.390617
0.390342
0.39001
0.389639
0.389258
0.388892
0.38856
0.388275
0.388046
0.3879
0.387845
0.387861
0.389663
0.389615
0.389592
0.389624
0.389745
0.389968
0.390273
0.390625
0.390988
0.391344
0.391685
0.392001
0.39227
0.392463
0.392567
0.392588
0.39254
0.39243
0.392256
0.392015
0.39171
0.391363
0.391009
0.390675
0.390374
0.390108
0.389887
0.389746
0.389695
0.389712
0.391376
0.391337
0.391316
0.391349
0.391469
0.391684
0.391978
0.392313
0.392655
0.392989
0.393311
0.393609
0.393854
0.39402
0.394101
0.394112
0.394073
0.393989
0.393847
0.393636
0.393358
0.393039
0.392716
0.39241
0.392124
0.391861
0.391642
0.391504
0.391453
0.391472
0.393151
0.393118
0.393107
0.393155
0.39329
0.393517
0.393815
0.394145
0.394477
0.394799
0.395108
0.395384
0.3956
0.395732
0.395785
0.395783
0.395751
0.395686
0.395568
0.395382
0.395133
0.394845
0.394546
0.394249
0.393955
0.393684
0.393465
0.393331
0.393279
0.393297
0.395144
0.395117
0.395123
0.395199
0.395369
0.395628
0.395947
0.39629
0.396631
0.396958
0.397261
0.39752
0.397707
0.397809
0.39784
0.397835
0.39781
0.397755
0.397645
0.39747
0.397239
0.396969
0.396674
0.396362
0.39605
0.39577
0.395551
0.395415
0.395361
0.395375
0.397602
0.397585
0.397612
0.397724
0.397937
0.398236
0.39859
0.398967
0.399338
0.399687
0.399998
0.40025
0.400422
0.400512
0.400543
0.400546
0.400527
0.400465
0.40034
0.400152
0.399912
0.399632
0.399319
0.398985
0.398656
0.398367
0.398144
0.398005
0.397954
0.397963
0.400902
0.40089
0.400932
0.401073
0.401318
0.401655
0.402055
0.402481
0.402898
0.403282
0.403614
0.403877
0.404056
0.40416
0.404211
0.404229
0.404206
0.404121
0.40396
0.403732
0.403454
0.40314
0.402798
0.402442
0.4021
0.401803
0.401577
0.401447
0.401407
0.401417
0.40554
0.405523
0.405564
0.405706
0.405965
0.406331
0.406774
0.407249
0.407717
0.408143
0.408507
0.408796
0.409006
0.409145
0.409225
0.409253
0.409216
0.409097
0.408889
0.408607
0.408276
0.407915
0.407537
0.407157
0.406803
0.406506
0.406298
0.406196
0.406179
0.4062
0.412138
0.412101
0.412117
0.412234
0.412484
0.412857
0.413324
0.413838
0.414349
0.414817
0.415219
0.41555
0.415806
0.415987
0.416092
0.416116
0.416055
0.415899
0.415645
0.415309
0.414921
0.414507
0.414088
0.413686
0.41333
0.413057
0.412893
0.41284
0.412863
0.412915
0.421494
0.421415
0.421386
0.421456
0.421664
0.422016
0.422483
0.423015
0.423556
0.424061
0.424507
0.424883
0.425184
0.425399
0.425515
0.425528
0.425439
0.42525
0.424957
0.424574
0.424135
0.423674
0.423222
0.422808
0.422469
0.422242
0.422143
0.422157
0.422238
0.422338
0.434655
0.434502
0.434407
0.434401
0.43454
0.434844
0.435286
0.435817
0.436377
0.436914
0.437395
0.437806
0.438138
0.438375
0.438495
0.438496
0.438383
0.438164
0.437842
0.43743
0.43696
0.436472
0.435999
0.435583
0.435271
0.4351
0.435074
0.435168
0.43532
0.435496
0.452902
0.452622
0.452427
0.452319
0.452369
0.452607
0.453013
0.453531
0.454096
0.454649
0.455153
0.45559
0.455946
0.456197
0.45632
0.456308
0.456174
0.455935
0.455602
0.455186
0.45471
0.454207
0.453719
0.453301
0.453013
0.452893
0.452943
0.453127
0.453369
0.453672
0.477755
0.47758
0.47731
0.477098
0.477056
0.477229
0.477598
0.478095
0.478651
0.47921
0.479735
0.480198
0.480574
0.480836
0.480957
0.480933
0.480782
0.480533
0.480201
0.479793
0.47932
0.478808
0.478305
0.477883
0.477612
0.477539
0.477663
0.477932
0.478233
0.478426
0.514235
0.51325
0.512815
0.512472
0.512342
0.512463
0.512796
0.513267
0.513808
0.514369
0.514908
0.515389
0.515778
0.516043
0.51616
0.516127
0.515968
0.515713
0.515384
0.514982
0.51451
0.513992
0.513485
0.513072
0.512832
0.512814
0.51302
0.513395
0.513841
0.51484
0.252567
0.252621
0.252914
0.253401
0.254049
0.254838
0.255739
0.256705
0.257686
0.258629
0.25949
0.260231
0.260821
0.261232
0.261443
0.26144
0.26122
0.260791
0.26017
0.259387
0.258483
0.257503
0.256497
0.255513
0.254595
0.253778
0.253092
0.252562
0.252234
0.252167
0.257025
0.257187
0.257485
0.25797
0.258612
0.259398
0.260298
0.261264
0.262241
0.26318
0.264037
0.264775
0.265364
0.265775
0.265987
0.265986
0.26577
0.265346
0.264731
0.263954
0.263053
0.262073
0.261066
0.26008
0.259162
0.258346
0.257663
0.257134
0.2568
0.25662
0.278981
0.279006
0.279277
0.279724
0.280337
0.281101
0.281982
0.282931
0.283891
0.284812
0.285653
0.286377
0.286954
0.287355
0.287562
0.287564
0.28736
0.286955
0.286364
0.28561
0.284728
0.28376
0.28276
0.281783
0.280879
0.280084
0.27943
0.278939
0.278628
0.278582
0.295148
0.295282
0.295536
0.295957
0.296542
0.297279
0.298134
0.299056
0.299989
0.300882
0.301696
0.302395
0.302948
0.30333
0.303525
0.303528
0.303339
0.30296
0.302402
0.30168
0.300823
0.299876
0.298895
0.297943
0.297068
0.296309
0.295693
0.295228
0.294928
0.294765
0.311612
0.311673
0.311886
0.312269
0.31282
0.313525
0.314349
0.315238
0.316134
0.31699
0.317765
0.318426
0.318944
0.319297
0.319474
0.319476
0.319303
0.318953
0.318429
0.317739
0.316912
0.315996
0.315054
0.314147
0.313323
0.312617
0.312048
0.311623
0.311359
0.31126
0.325595
0.325661
0.325852
0.326207
0.326727
0.3274
0.328187
0.329035
0.329886
0.330695
0.331423
0.332038
0.332514
0.332834
0.332995
0.332997
0.332838
0.332513
0.332016
0.331357
0.330565
0.329695
0.328811
0.327969
0.32721
0.326558
0.326029
0.325633
0.325389
0.325285
0.337706
0.337757
0.337923
0.338247
0.338731
0.339363
0.340106
0.340904
0.341705
0.342462
0.34314
0.343708
0.344145
0.344438
0.344585
0.344588
0.344439
0.344129
0.343653
0.343022
0.342273
0.341463
0.340651
0.339882
0.339186
0.338585
0.338095
0.337733
0.337519
0.337436
0.347995
0.348036
0.348176
0.348463
0.348903
0.349486
0.350177
0.350923
0.351671
0.352378
0.35301
0.353539
0.353945
0.35422
0.354358
0.354357
0.35421
0.353907
0.353447
0.352847
0.352148
0.351403
0.35066
0.349956
0.349314
0.348757
0.34831
0.34799
0.34781
0.347744
0.356666
0.356691
0.356798
0.357041
0.357433
0.357965
0.358603
0.359298
0.359997
0.36066
0.361255
0.361755
0.362141
0.362403
0.362532
0.362523
0.362371
0.362072
0.36163
0.361066
0.360418
0.35973
0.359041
0.358383
0.357784
0.357272
0.356875
0.356604
0.356459
0.356414
0.36387
0.363873
0.363947
0.364149
0.364497
0.364984
0.365578
0.366228
0.366886
0.367512
0.368076
0.368554
0.368926
0.369176
0.369293
0.369275
0.36912
0.368828
0.368411
0.367886
0.367282
0.366634
0.36598
0.365355
0.364793
0.364329
0.363982
0.363756
0.363642
0.363619
0.36977
0.369752
0.369801
0.369974
0.370291
0.370746
0.371306
0.371919
0.37254
0.373131
0.373667
0.374124
0.37448
0.374717
0.374825
0.374803
0.374652
0.374377
0.373989
0.3735
0.372929
0.372307
0.371678
0.371082
0.370559
0.370138
0.369831
0.369637
0.369547
0.369544
0.374561
0.374528
0.374563
0.37472
0.375019
0.37545
0.37598
0.376559
0.377142
0.377697
0.378201
0.378633
0.37897
0.379196
0.3793
0.379283
0.379147
0.378897
0.378537
0.378076
0.377529
0.376932
0.37633
0.37577
0.375286
0.374898
0.374613
0.374436
0.374363
0.374373
0.378443
0.378401
0.378429
0.378574
0.378856
0.379263
0.379761
0.380302
0.380845
0.381361
0.38183
0.382234
0.382553
0.382772
0.382881
0.382878
0.382763
0.382535
0.382199
0.381761
0.381241
0.380677
0.380114
0.379594
0.379143
0.378774
0.378498
0.378331
0.378267
0.378281
0.381596
0.381546
0.381566
0.381693
0.38195
0.382325
0.382787
0.383289
0.383793
0.384271
0.384707
0.385088
0.385395
0.385614
0.385733
0.385746
0.385649
0.38544
0.385124
0.384713
0.38423
0.383709
0.383191
0.382706
0.382278
0.38192
0.381652
0.381492
0.381431
0.381447
0.384166
0.384106
0.384109
0.384213
0.384438
0.384777
0.385202
0.385669
0.386139
0.386586
0.386999
0.387365
0.387667
0.387889
0.388017
0.388042
0.387958
0.387765
0.387474
0.3871
0.386661
0.386186
0.385706
0.385249
0.384838
0.384493
0.384235
0.384081
0.384025
0.384049
0.386276
0.386207
0.386194
0.386272
0.386467
0.386774
0.387169
0.387608
0.388051
0.388476
0.388872
0.389227
0.389525
0.389747
0.389876
0.389906
0.389834
0.389664
0.389409
0.389078
0.388683
0.388245
0.387794
0.38736
0.386969
0.38664
0.386394
0.386248
0.386202
0.386235
0.388053
0.387982
0.387959
0.38802
0.388192
0.388475
0.388847
0.389262
0.389684
0.390088
0.390467
0.39081
0.391098
0.39131
0.391432
0.391462
0.391406
0.391267
0.391053
0.390764
0.390404
0.389995
0.389573
0.389166
0.388798
0.388483
0.388243
0.388103
0.388064
0.388101
0.389626
0.389558
0.389534
0.389588
0.389749
0.390019
0.390374
0.390771
0.391171
0.391554
0.391912
0.392239
0.392511
0.392703
0.392809
0.392837
0.392798
0.392692
0.392516
0.392262
0.39193
0.391549
0.391157
0.390779
0.390428
0.390118
0.389877
0.389737
0.389699
0.389737
0.39111
0.391048
0.39103
0.391089
0.391254
0.391525
0.391875
0.39226
0.392643
0.393007
0.393349
0.393656
0.393902
0.394068
0.394153
0.394176
0.39415
0.394071
0.393925
0.393697
0.393393
0.393043
0.39268
0.392319
0.391973
0.391657
0.391409
0.391262
0.391218
0.391259
0.392612
0.392556
0.392553
0.392633
0.392822
0.393113
0.393474
0.39386
0.39424
0.394598
0.394927
0.395213
0.395431
0.395566
0.395629
0.395646
0.395631
0.395571
0.395443
0.395235
0.394956
0.394632
0.394282
0.393921
0.393563
0.393237
0.392978
0.392821
0.39277
0.39281
0.394283
0.394233
0.394255
0.394373
0.394603
0.394929
0.395318
0.395726
0.396124
0.396492
0.396819
0.397089
0.397282
0.397392
0.397441
0.397459
0.397451
0.397396
0.397268
0.397066
0.396799
0.396482
0.396125
0.395746
0.39537
0.395029
0.394756
0.394588
0.394531
0.394568
0.396362
0.396322
0.396368
0.396527
0.396801
0.397171
0.397604
0.398057
0.398492
0.398887
0.399226
0.399493
0.399675
0.399778
0.399831
0.399857
0.399851
0.399783
0.399636
0.399416
0.399135
0.398799
0.398419
0.398016
0.397618
0.397256
0.396969
0.396795
0.396739
0.396776
0.399194
0.399155
0.399214
0.399397
0.399704
0.400118
0.400603
0.40111
0.401597
0.402032
0.402396
0.402676
0.402869
0.40299
0.403064
0.403102
0.403086
0.402991
0.402806
0.402545
0.402223
0.401852
0.401443
0.401013
0.400588
0.400207
0.399917
0.399756
0.399711
0.399756
0.403195
0.403137
0.40319
0.403371
0.403691
0.404135
0.404662
0.405222
0.405762
0.406241
0.406638
0.40695
0.40718
0.407341
0.407441
0.407479
0.407441
0.407307
0.407076
0.406761
0.406387
0.405973
0.405528
0.405066
0.404619
0.404239
0.403976
0.403846
0.403826
0.403894
0.408815
0.40873
0.40875
0.408903
0.409207
0.409653
0.410203
0.4108
0.411382
0.411903
0.412344
0.412703
0.412984
0.413186
0.413303
0.413329
0.413259
0.413086
0.412807
0.412439
0.412013
0.411552
0.411068
0.410579
0.410131
0.409784
0.40957
0.409491
0.409516
0.409624
0.416513
0.416395
0.416366
0.416462
0.416718
0.417136
0.417682
0.418293
0.418902
0.419462
0.419948
0.420354
0.420679
0.420913
0.421037
0.421049
0.420949
0.420737
0.420415
0.420003
0.419536
0.419037
0.418521
0.418022
0.417597
0.417301
0.417152
0.41714
0.417226
0.417377
0.42668
0.426529
0.426438
0.426453
0.426637
0.427002
0.427517
0.42812
0.428743
0.429331
0.429851
0.430292
0.430651
0.430907
0.431037
0.431034
0.430905
0.430657
0.430306
0.429876
0.42939
0.428868
0.428333
0.427835
0.427441
0.4272
0.427122
0.42719
0.427339
0.427521
0.439427
0.439213
0.439033
0.438953
0.439046
0.439339
0.43981
0.440393
0.441015
0.441616
0.44216
0.442633
0.443017
0.443287
0.443415
0.443396
0.443241
0.442975
0.44262
0.442192
0.441701
0.441161
0.44061
0.440116
0.439753
0.439566
0.439569
0.43972
0.439941
0.44018
0.45342
0.453353
0.453101
0.452921
0.452924
0.453153
0.453581
0.454136
0.454744
0.45535
0.455919
0.456418
0.456817
0.457088
0.457209
0.457173
0.457003
0.456732
0.456385
0.455966
0.45547
0.454914
0.454351
0.453864
0.453531
0.453405
0.453487
0.453717
0.453989
0.454069
0.470683
0.470376
0.470006
0.469709
0.469633
0.469807
0.470191
0.470709
0.471296
0.471902
0.472483
0.472995
0.473403
0.473676
0.47379
0.473744
0.473568
0.473302
0.472965
0.472549
0.472045
0.471479
0.470919
0.470452
0.470162
0.4701
0.470262
0.470589
0.470957
0.471267
0.290842
0.290969
0.291334
0.291897
0.292636
0.29353
0.294543
0.295624
0.296721
0.29778
0.298751
0.299593
0.300267
0.300738
0.300979
0.30098
0.300736
0.300253
0.299552
0.298668
0.297646
0.296537
0.295398
0.294285
0.29325
0.292335
0.291573
0.290989
0.290606
0.29047
0.28562
0.285863
0.286227
0.286789
0.287522
0.288411
0.28942
0.290499
0.291594
0.29265
0.29362
0.294461
0.295134
0.295604
0.295847
0.29585
0.29561
0.295131
0.294435
0.293556
0.292537
0.291426
0.290284
0.28917
0.288135
0.287223
0.286467
0.285884
0.285499
0.285242
0.300073
0.300136
0.300463
0.300982
0.301682
0.302544
0.30353
0.304588
0.305663
0.3067
0.307653
0.308479
0.309138
0.309595
0.309831
0.309836
0.309606
0.309146
0.308475
0.307622
0.306623
0.305528
0.304398
0.303297
0.302281
0.301397
0.300676
0.300133
0.299782
0.299699
0.310807
0.310959
0.311259
0.311747
0.312413
0.31324
0.314193
0.315219
0.316262
0.317269
0.318193
0.318991
0.319623
0.320056
0.320277
0.32028
0.320064
0.319632
0.318996
0.318178
0.31721
0.316143
0.315042
0.313974
0.312996
0.312156
0.311476
0.310962
0.31063
0.31045
0.323525
0.323595
0.323845
0.324286
0.324908
0.325692
0.326603
0.327587
0.328587
0.329553
0.330436
0.331193
0.331785
0.332185
0.332387
0.332388
0.332188
0.331787
0.33119
0.33041
0.329482
0.328459
0.327408
0.326395
0.325477
0.324693
0.324061
0.32359
0.323299
0.323194
0.334721
0.334792
0.335012
0.335413
0.33599
0.336728
0.337589
0.338522
0.339471
0.340386
0.34122
0.341929
0.342475
0.342842
0.343025
0.343025
0.34284
0.342466
0.341901
0.341159
0.340278
0.339315
0.338334
0.337396
0.336547
0.33582
0.335229
0.334791
0.334525
0.334418
0.34488
0.34493
0.345112
0.345466
0.345991
0.346672
0.347476
0.34835
0.349243
0.350103
0.350885
0.351544
0.352049
0.352387
0.352554
0.352551
0.352374
0.352015
0.351475
0.350772
0.349947
0.349056
0.348157
0.347298
0.346517
0.345844
0.3453
0.344904
0.344674
0.344593
0.353739
0.353771
0.353914
0.354215
0.35468
0.355299
0.35604
0.356853
0.357687
0.358494
0.359225
0.359841
0.360313
0.360627
0.360779
0.360767
0.360587
0.360235
0.359717
0.359055
0.358292
0.357475
0.356653
0.355864
0.355144
0.354526
0.354037
0.353692
0.353501
0.353441
0.361336
0.361341
0.361438
0.361682
0.362087
0.362644
0.363324
0.364079
0.364858
0.365613
0.366301
0.366884
0.367329
0.367623
0.367758
0.367731
0.367543
0.367197
0.366704
0.366088
0.365384
0.364631
0.363869
0.363136
0.36247
0.36191
0.361484
0.361197
0.361048
0.361014
0.36768
0.367656
0.367712
0.367907
0.368262
0.368769
0.369397
0.3701
0.37083
0.371541
0.372193
0.372746
0.37317
0.373445
0.373563
0.373523
0.373332
0.372998
0.372536
0.371966
0.371312
0.370604
0.369884
0.369195
0.368581
0.368082
0.367716
0.367478
0.367366
0.367358
0.372863
0.372814
0.372841
0.373004
0.373326
0.373798
0.374388
0.375049
0.375736
0.376407
0.377023
0.377548
0.37795
0.378208
0.378313
0.37827
0.378087
0.377777
0.37735
0.376818
0.376198
0.375522
0.374834
0.374186
0.373623
0.373176
0.372855
0.372654
0.372572
0.372585
0.377038
0.376972
0.376984
0.377131
0.377436
0.377887
0.378447
0.379072
0.379719
0.380349
0.380928
0.381421
0.381799
0.382041
0.382143
0.382109
0.381947
0.381665
0.38127
0.380768
0.380174
0.379524
0.378871
0.378265
0.377744
0.377333
0.37704
0.376864
0.376806
0.376832
0.380383
0.380307
0.380313
0.380452
0.380746
0.381176
0.381709
0.382299
0.382904
0.38349
0.384028
0.384487
0.384841
0.385074
0.385182
0.385166
0.385029
0.384775
0.384407
0.38393
0.383365
0.38275
0.382135
0.381567
0.381076
0.380685
0.380408
0.38025
0.380208
0.380244
0.383064
0.382982
0.382983
0.383111
0.383387
0.383794
0.384297
0.384851
0.385416
0.385961
0.386459
0.386888
0.387225
0.387456
0.387573
0.387576
0.387462
0.387231
0.386888
0.386443
0.385916
0.385342
0.384765
0.384223
0.383749
0.38337
0.383106
0.38296
0.382929
0.382978
0.385214
0.385127
0.38512
0.385232
0.385486
0.385866
0.386339
0.386861
0.387393
0.387904
0.388372
0.388779
0.389105
0.389335
0.389461
0.389477
0.38938
0.389171
0.38886
0.388457
0.387974
0.38744
0.38689
0.386366
0.385904
0.385534
0.385278
0.385143
0.385125
0.38519
0.386942
0.386851
0.386836
0.386932
0.387165
0.38752
0.387969
0.388468
0.388975
0.38946
0.389906
0.390297
0.390612
0.390837
0.390963
0.390985
0.390904
0.390724
0.390453
0.390096
0.389656
0.389154
0.388629
0.388123
0.387673
0.387307
0.387054
0.386929
0.386924
0.386999
0.388347
0.388259
0.388239
0.388324
0.388541
0.388882
0.389317
0.389799
0.390286
0.39075
0.391176
0.39155
0.391851
0.392064
0.392181
0.392206
0.392143
0.391997
0.391769
0.391453
0.391047
0.390575
0.390079
0.389596
0.389153
0.388784
0.388527
0.388406
0.388405
0.38848
0.389528
0.389444
0.389426
0.389508
0.389723
0.390062
0.390491
0.390963
0.391435
0.391881
0.392289
0.392646
0.39293
0.393124
0.393228
0.393254
0.39321
0.393095
0.392902
0.392616
0.392239
0.391798
0.391333
0.390868
0.390425
0.390044
0.389775
0.389646
0.389638
0.389709
0.39057
0.39049
0.390483
0.390579
0.39081
0.391161
0.391598
0.39207
0.392536
0.392971
0.393366
0.393707
0.393969
0.394139
0.394229
0.394255
0.394226
0.394134
0.393964
0.393701
0.393348
0.392936
0.392491
0.392033
0.391582
0.391184
0.390894
0.390744
0.39072
0.390786
0.391568
0.391499
0.391513
0.391643
0.391907
0.392289
0.39275
0.393238