/*--------------------------------*- C++ -*----------------------------------*\
| =========                 |                                                 |
| \\      /  F ield         | OpenFOAM: The Open Source CFD Toolbox           |
|  \\    /   O peration     | Version:  2506                                  |
|   \\  /    A nd           | Website:  www.openfoam.com                      |
|    \\/     M anipulation  |                                                 |
\*---------------------------------------------------------------------------*/
FoamFile
{
    version     2.0;
    format      ascii;
    arch        "LSB;label=32;scalar=64";
    class       volScalarField;
    location    "100";
    object      epsilon;
}
// * * * * * * * * * * * * * * * * * * * * * * * * * * * * * * * * * * * * * //

dimensions      [0 2 -3 0 0 0 0];

internalField   nonuniform List<scalar> 
144676
(
0.116221
0.116222
0.116222
0.116222
0.116222
0.116222
0.116222
0.116222
0.116222
0.116222
0.116222
0.116222
0.116222
0.116222
0.116221
0.116221
0.116222
0.116222
0.116222
0.116222
0.116222
0.116222
0.116222
0.116222
0.116222
0.116222
0.116222
0.116222
0.116222
0.116221
0.0471257
0.0471257
0.0471258
0.0471259
0.047126
0.0471261
0.0471262
0.0471263
0.0471264
0.0471265
0.0471266
0.0471267
0.0471268
0.0471268
0.0471269
0.0471269
0.0471268
0.0471268
0.0471267
0.0471266
0.0471265
0.0471264
0.0471263
0.0471262
0.0471261
0.047126
0.0471259
0.0471258
0.0471257
0.0471257
0.0283361
0.0283362
0.0283362
0.0283362
0.0283363
0.0283364
0.0283365
0.0283365
0.0283366
0.0283367
0.0283368
0.0283368
0.0283369
0.0283369
0.0283369
0.0283369
0.0283369
0.0283369
0.0283368
0.0283368
0.0283367
0.0283366
0.0283365
0.0283365
0.0283364
0.0283363
0.0283362
0.0283362
0.0283362
0.0283361
0.0202975
0.0202975
0.0202975
0.0202975
0.0202976
0.0202976
0.0202977
0.0202977
0.0202978
0.0202979
0.0202979
0.020298
0.020298
0.0202981
0.0202981
0.0202981
0.0202981
0.020298
0.020298
0.0202979
0.0202979
0.0202978
0.0202977
0.0202977
0.0202976
0.0202976
0.0202975
0.0202975
0.0202975
0.0202975
0.0158294
0.0158294
0.0158294
0.0158295
0.0158295
0.0158296
0.0158296
0.0158297
0.0158297
0.0158298
0.0158298
0.0158299
0.0158299
0.0158299
0.01583
0.01583
0.0158299
0.0158299
0.0158299
0.0158298
0.0158298
0.0158297
0.0158297
0.0158296
0.0158296
0.0158295
0.0158295
0.0158294
0.0158294
0.0158294
0.0129786
0.0129786
0.0129786
0.0129786
0.0129787
0.0129787
0.0129788
0.0129788
0.0129789
0.0129789
0.0129789
0.012979
0.012979
0.012979
0.012979
0.012979
0.012979
0.012979
0.012979
0.0129789
0.0129789
0.0129789
0.0129788
0.0129788
0.0129787
0.0129787
0.0129786
0.0129786
0.0129786
0.0129786
0.0109992
0.0109992
0.0109992
0.0109992
0.0109993
0.0109993
0.0109993
0.0109994
0.0109994
0.0109995
0.0109995
0.0109995
0.0109996
0.0109996
0.0109996
0.0109996
0.0109996
0.0109996
0.0109995
0.0109995
0.0109995
0.0109994
0.0109994
0.0109993
0.0109993
0.0109993
0.0109992
0.0109992
0.0109992
0.0109992
0.00954406
0.00954407
0.00954408
0.0095441
0.00954413
0.00954416
0.0095442
0.00954424
0.00954427
0.00954431
0.00954434
0.00954437
0.0095444
0.00954441
0.00954442
0.00954442
0.00954441
0.0095444
0.00954437
0.00954434
0.00954431
0.00954427
0.00954424
0.0095442
0.00954416
0.00954413
0.0095441
0.00954408
0.00954407
0.00954406
0.00842907
0.00842908
0.00842909
0.00842911
0.00842913
0.00842916
0.00842919
0.00842922
0.00842926
0.00842929
0.00842932
0.00842934
0.00842936
0.00842938
0.00842938
0.00842938
0.00842938
0.00842936
0.00842934
0.00842932
0.00842929
0.00842926
0.00842922
0.00842919
0.00842916
0.00842913
0.00842911
0.00842909
0.00842908
0.00842907
0.00754737
0.00754738
0.00754739
0.0075474
0.00754742
0.00754745
0.00754747
0.0075475
0.00754753
0.00754756
0.00754758
0.00754761
0.00754762
0.00754763
0.00754764
0.00754764
0.00754763
0.00754762
0.0075476
0.00754758
0.00754756
0.00754753
0.0075475
0.00754747
0.00754745
0.00754742
0.0075474
0.00754739
0.00754738
0.00754737
0.00683265
0.00683265
0.00683266
0.00683268
0.00683269
0.00683272
0.00683274
0.00683276
0.00683279
0.00683281
0.00683283
0.00683285
0.00683287
0.00683288
0.00683288
0.00683288
0.00683288
0.00683287
0.00683285
0.00683283
0.00683281
0.00683279
0.00683276
0.00683274
0.00683272
0.00683269
0.00683268
0.00683266
0.00683265
0.00683265
0.00624156
0.00624157
0.00624157
0.00624159
0.0062416
0.00624162
0.00624164
0.00624166
0.00624168
0.0062417
0.00624172
0.00624174
0.00624175
0.00624176
0.00624176
0.00624176
0.00624176
0.00624175
0.00624174
0.00624172
0.0062417
0.00624168
0.00624166
0.00624164
0.00624162
0.0062416
0.00624159
0.00624157
0.00624157
0.00624156
0.00574458
0.00574458
0.00574459
0.0057446
0.00574461
0.00574463
0.00574464
0.00574466
0.00574468
0.0057447
0.00574471
0.00574473
0.00574474
0.00574474
0.00574475
0.00574475
0.00574474
0.00574474
0.00574473
0.00574471
0.0057447
0.00574468
0.00574466
0.00574464
0.00574463
0.00574461
0.0057446
0.00574459
0.00574458
0.00574458
0.00532088
0.00532088
0.00532089
0.0053209
0.00532091
0.00532092
0.00532093
0.00532095
0.00532096
0.00532098
0.00532099
0.005321
0.00532101
0.00532102
0.00532102
0.00532102
0.00532102
0.00532101
0.005321
0.00532099
0.00532098
0.00532096
0.00532095
0.00532093
0.00532092
0.00532091
0.0053209
0.00532089
0.00532088
0.00532088
0.00495536
0.00495537
0.00495537
0.00495538
0.00495539
0.0049554
0.00495541
0.00495542
0.00495544
0.00495545
0.00495546
0.00495547
0.00495548
0.00495548
0.00495549
0.00495549
0.00495548
0.00495548
0.00495547
0.00495546
0.00495545
0.00495544
0.00495542
0.00495541
0.0049554
0.00495539
0.00495538
0.00495537
0.00495537
0.00495536
0.00463682
0.00463682
0.00463682
0.00463683
0.00463684
0.00463685
0.00463686
0.00463687
0.00463688
0.00463689
0.0046369
0.00463691
0.00463691
0.00463692
0.00463692
0.00463692
0.00463692
0.00463691
0.00463691
0.0046369
0.00463689
0.00463688
0.00463687
0.00463686
0.00463685
0.00463684
0.00463683
0.00463682
0.00463682
0.00463682
0.00435673
0.00435673
0.00435674
0.00435674
0.00435675
0.00435676
0.00435677
0.00435677
0.00435678
0.00435679
0.0043568
0.00435681
0.00435681
0.00435682
0.00435682
0.00435682
0.00435682
0.00435681
0.00435681
0.0043568
0.00435679
0.00435678
0.00435677
0.00435677
0.00435676
0.00435675
0.00435674
0.00435674
0.00435673
0.00435673
0.00410854
0.00410854
0.00410854
0.00410855
0.00410855
0.00410856
0.00410856
0.00410857
0.00410858
0.00410859
0.00410859
0.0041086
0.0041086
0.00410861
0.00410861
0.00410861
0.00410861
0.0041086
0.0041086
0.00410859
0.00410859
0.00410858
0.00410857
0.00410856
0.00410856
0.00410855
0.00410855
0.00410854
0.00410854
0.00410854
0.00388708
0.00388708
0.00388708
0.00388708
0.00388709
0.00388709
0.0038871
0.0038871
0.00388711
0.00388712
0.00388712
0.00388713
0.00388713
0.00388713
0.00388713
0.00388713
0.00388713
0.00388713
0.00388713
0.00388712
0.00388712
0.00388711
0.0038871
0.0038871
0.00388709
0.00388709
0.00388708
0.00388708
0.00388708
0.00388708
0.00368825
0.00368825
0.00368825
0.00368826
0.00368826
0.00368826
0.00368827
0.00368827
0.00368828
0.00368828
0.00368829
0.00368829
0.00368829
0.0036883
0.0036883
0.0036883
0.0036883
0.00368829
0.00368829
0.00368829
0.00368828
0.00368828
0.00368827
0.00368827
0.00368826
0.00368826
0.00368826
0.00368825
0.00368825
0.00368825
0.00350875
0.00350876
0.00350876
0.00350876
0.00350876
0.00350876
0.00350877
0.00350877
0.00350878
0.00350878
0.00350878
0.00350879
0.00350879
0.00350879
0.00350879
0.00350879
0.00350879
0.00350879
0.00350879
0.00350878
0.00350878
0.00350878
0.00350877
0.00350877
0.00350876
0.00350876
0.00350876
0.00350876
0.00350876
0.00350875
0.0033459
0.0033459
0.0033459
0.0033459
0.0033459
0.00334591
0.00334591
0.00334591
0.00334592
0.00334592
0.00334592
0.00334592
0.00334593
0.00334593
0.00334593
0.00334593
0.00334593
0.00334593
0.00334592
0.00334592
0.00334592
0.00334592
0.00334591
0.00334591
0.00334591
0.0033459
0.0033459
0.0033459
0.0033459
0.0033459
0.00319747
0.00319747
0.00319747
0.00319747
0.00319748
0.00319748
0.00319748
0.00319748
0.00319749
0.00319749
0.00319749
0.00319749
0.00319749
0.00319749
0.00319749
0.00319749
0.00319749
0.00319749
0.00319749
0.00319749
0.00319749
0.00319749
0.00319748
0.00319748
0.00319748
0.00319748
0.00319747
0.00319747
0.00319747
0.00319747
0.00306164
0.00306164
0.00306164
0.00306164
0.00306164
0.00306165
0.00306165
0.00306165
0.00306165
0.00306165
0.00306166
0.00306166
0.00306166
0.00306166
0.00306166
0.00306166
0.00306166
0.00306166
0.00306166
0.00306166
0.00306165
0.00306165
0.00306165
0.00306165
0.00306165
0.00306164
0.00306164
0.00306164
0.00306164
0.00306164
0.00293689
0.00293689
0.00293689
0.00293689
0.00293689
0.00293689
0.0029369
0.0029369
0.0029369
0.0029369
0.0029369
0.0029369
0.0029369
0.0029369
0.00293691
0.00293691
0.0029369
0.0029369
0.0029369
0.0029369
0.0029369
0.0029369
0.0029369
0.0029369
0.00293689
0.00293689
0.00293689
0.00293689
0.00293689
0.00293689
0.00282198
0.00282198
0.00282198
0.00282198
0.00282199
0.00282199
0.00282199
0.00282199
0.00282199
0.00282199
0.00282199
0.00282199
0.00282199
0.00282199
0.00282199
0.00282199
0.00282199
0.00282199
0.00282199
0.00282199
0.00282199
0.00282199
0.00282199
0.00282199
0.00282199
0.00282198
0.00282198
0.00282198
0.00282198
0.00282198
0.002716
0.002716
0.002716
0.002716
0.002716
0.002716
0.002716
0.002716
0.002716
0.002716
0.002716
0.002716
0.002716
0.002716
0.002716
0.002716
0.002716
0.002716
0.002716
0.002716
0.002716
0.002716
0.002716
0.002716
0.002716
0.002716
0.002716
0.002716
0.002716
0.002716
0.00261857
0.00261857
0.00261857
0.00261857
0.00261857
0.00261857
0.00261857
0.00261857
0.00261858
0.00261858
0.00261858
0.00261858
0.00261858
0.00261858
0.00261858
0.00261858
0.00261858
0.00261858
0.00261858
0.00261858
0.00261858
0.00261858
0.00261857
0.00261857
0.00261857
0.00261857
0.00261857
0.00261857
0.00261857
0.00261857
0.00253109
0.00253109
0.00253109
0.00253109
0.00253109
0.00253109
0.00253109
0.00253109
0.00253109
0.00253109
0.00253109
0.00253109
0.00253109
0.00253109
0.00253109
0.00253109
0.00253109
0.00253109
0.00253109
0.00253109
0.00253109
0.00253109
0.00253109
0.00253109
0.00253109
0.00253109
0.00253109
0.00253109
0.00253109
0.00253109
0.00246257
0.00246257
0.00246257
0.00246257
0.00246257
0.00246257
0.00246257
0.00246257
0.00246257
0.00246257
0.00246257
0.00246257
0.00246257
0.00246257
0.00246257
0.00246257
0.00246257
0.00246257
0.00246257
0.00246257
0.00246257
0.00246257
0.00246257
0.00246257
0.00246257
0.00246257
0.00246257
0.00246257
0.00246257
0.00246257
0.096395
0.0963966
0.0963967
0.0963966
0.0963963
0.096396
0.0963956
0.0963951
0.0963947
0.0963943
0.0963939
0.0963935
0.0963932
0.096393
0.0963929
0.0963929
0.096393
0.0963932
0.0963935
0.0963939
0.0963943
0.0963947
0.0963951
0.0963956
0.096396
0.0963963
0.0963966
0.0963967
0.0963966
0.096395
0.0468477
0.0468474
0.0468475
0.0468477
0.046848
0.0468482
0.0468485
0.0468488
0.0468491
0.0468494
0.0468496
0.0468498
0.04685
0.0468501
0.0468502
0.0468502
0.0468501
0.04685
0.0468498
0.0468496
0.0468494
0.0468491
0.0468488
0.0468485
0.0468482
0.046848
0.0468477
0.0468475
0.0468474
0.0468477
0.0283953
0.0283952
0.0283952
0.0283953
0.0283955
0.0283957
0.0283958
0.0283961
0.0283963
0.0283965
0.0283966
0.0283968
0.0283969
0.028397
0.0283971
0.0283971
0.028397
0.0283969
0.0283968
0.0283966
0.0283965
0.0283963
0.0283961
0.0283958
0.0283956
0.0283955
0.0283953
0.0283952
0.0283952
0.0283953
0.0202991
0.020299
0.0202991
0.0202992
0.0202993
0.0202994
0.0202996
0.0202997
0.0202999
0.0203
0.0203002
0.0203003
0.0203004
0.0203005
0.0203005
0.0203005
0.0203005
0.0203004
0.0203003
0.0203002
0.0203
0.0202999
0.0202997
0.0202996
0.0202994
0.0202993
0.0202992
0.0202991
0.020299
0.0202991
0.0158164
0.0158164
0.0158165
0.0158165
0.0158166
0.0158167
0.0158169
0.015817
0.0158171
0.0158173
0.0158174
0.0158175
0.0158176
0.0158176
0.0158177
0.0158177
0.0158176
0.0158176
0.0158175
0.0158174
0.0158173
0.0158171
0.015817
0.0158169
0.0158167
0.0158166
0.0158165
0.0158165
0.0158164
0.0158164
0.0129654
0.0129654
0.0129655
0.0129655
0.0129656
0.0129657
0.0129658
0.0129659
0.012966
0.0129661
0.0129662
0.0129663
0.0129664
0.0129664
0.0129665
0.0129665
0.0129664
0.0129664
0.0129663
0.0129662
0.0129661
0.012966
0.0129659
0.0129658
0.0129657
0.0129656
0.0129655
0.0129655
0.0129654
0.0129654
0.0109884
0.0109884
0.0109884
0.0109885
0.0109885
0.0109886
0.0109887
0.0109888
0.0109889
0.010989
0.0109891
0.0109892
0.0109892
0.0109893
0.0109893
0.0109893
0.0109893
0.0109892
0.0109892
0.0109891
0.010989
0.0109889
0.0109888
0.0109887
0.0109886
0.0109885
0.0109885
0.0109884
0.0109884
0.0109884
0.00953555
0.00953556
0.00953559
0.00953564
0.0095357
0.00953577
0.00953585
0.00953594
0.00953602
0.00953611
0.00953618
0.00953625
0.0095363
0.00953634
0.00953636
0.00953636
0.00953634
0.0095363
0.00953625
0.00953618
0.00953611
0.00953602
0.00953594
0.00953585
0.00953577
0.0095357
0.00953564
0.00953559
0.00953556
0.00953555
0.0084224
0.00842241
0.00842243
0.00842248
0.00842253
0.00842259
0.00842266
0.00842274
0.00842281
0.00842288
0.00842295
0.00842301
0.00842305
0.00842308
0.0084231
0.0084231
0.00842308
0.00842305
0.00842301
0.00842295
0.00842288
0.00842281
0.00842274
0.00842266
0.00842259
0.00842253
0.00842248
0.00842243
0.00842241
0.0084224
0.00754208
0.00754209
0.00754212
0.00754215
0.0075422
0.00754225
0.00754232
0.00754238
0.00754244
0.00754251
0.00754256
0.00754261
0.00754265
0.00754268
0.00754269
0.00754269
0.00754268
0.00754265
0.00754261
0.00754256
0.00754251
0.00754244
0.00754238
0.00754231
0.00754225
0.0075422
0.00754215
0.00754212
0.00754209
0.00754208
0.0068284
0.00682841
0.00682843
0.00682846
0.0068285
0.00682855
0.0068286
0.00682865
0.00682871
0.00682876
0.00682881
0.00682885
0.00682889
0.00682891
0.00682892
0.00682892
0.00682891
0.00682889
0.00682885
0.00682881
0.00682876
0.00682871
0.00682865
0.0068286
0.00682855
0.0068285
0.00682846
0.00682843
0.00682841
0.0068284
0.00623809
0.00623809
0.00623811
0.00623814
0.00623817
0.00623821
0.00623826
0.0062383
0.00623835
0.0062384
0.00623844
0.00623848
0.0062385
0.00623852
0.00623854
0.00623854
0.00623852
0.0062385
0.00623848
0.00623844
0.0062384
0.00623835
0.0062383
0.00623826
0.00623821
0.00623817
0.00623814
0.00623811
0.00623809
0.00623809
0.00574168
0.00574169
0.00574171
0.00574173
0.00574176
0.00574179
0.00574183
0.00574187
0.00574191
0.00574195
0.00574199
0.00574202
0.00574204
0.00574206
0.00574207
0.00574207
0.00574206
0.00574204
0.00574202
0.00574198
0.00574195
0.00574191
0.00574187
0.00574183
0.00574179
0.00574176
0.00574173
0.0057417
0.00574169
0.00574168
0.00531842
0.00531843
0.00531844
0.00531846
0.00531848
0.00531851
0.00531855
0.00531858
0.00531861
0.00531865
0.00531868
0.0053187
0.00531872
0.00531874
0.00531875
0.00531875
0.00531874
0.00531872
0.0053187
0.00531868
0.00531865
0.00531861
0.00531858
0.00531855
0.00531851
0.00531848
0.00531846
0.00531844
0.00531843
0.00531842
0.00495324
0.00495324
0.00495325
0.00495327
0.00495329
0.00495332
0.00495334
0.00495337
0.0049534
0.00495343
0.00495345
0.00495348
0.00495349
0.00495351
0.00495351
0.00495351
0.00495351
0.00495349
0.00495348
0.00495345
0.00495343
0.0049534
0.00495337
0.00495334
0.00495332
0.00495329
0.00495327
0.00495325
0.00495324
0.00495324
0.00463494
0.00463495
0.00463496
0.00463497
0.00463499
0.00463501
0.00463503
0.00463505
0.00463508
0.0046351
0.00463512
0.00463514
0.00463516
0.00463517
0.00463517
0.00463517
0.00463517
0.00463516
0.00463514
0.00463512
0.0046351
0.00463508
0.00463505
0.00463503
0.00463501
0.00463499
0.00463497
0.00463496
0.00463495
0.00463494
0.00435505
0.00435505
0.00435506
0.00435507
0.00435508
0.0043551
0.00435512
0.00435514
0.00435516
0.00435518
0.0043552
0.00435521
0.00435522
0.00435523
0.00435524
0.00435524
0.00435523
0.00435522
0.00435521
0.0043552
0.00435518
0.00435516
0.00435514
0.00435512
0.0043551
0.00435508
0.00435507
0.00435506
0.00435505
0.00435505
0.00410699
0.00410699
0.004107
0.00410701
0.00410702
0.00410703
0.00410705
0.00410707
0.00410708
0.0041071
0.00410711
0.00410713
0.00410714
0.00410714
0.00410715
0.00410715
0.00410714
0.00410714
0.00410713
0.00410711
0.0041071
0.00410708
0.00410707
0.00410705
0.00410703
0.00410702
0.00410701
0.004107
0.00410699
0.00410699
0.00388563
0.00388564
0.00388564
0.00388565
0.00388566
0.00388567
0.00388568
0.0038857
0.00388571
0.00388572
0.00388573
0.00388574
0.00388575
0.00388576
0.00388576
0.00388576
0.00388576
0.00388575
0.00388574
0.00388573
0.00388572
0.00388571
0.0038857
0.00388568
0.00388567
0.00388566
0.00388565
0.00388564
0.00388563
0.00388563
0.00368688
0.00368688
0.00368689
0.00368689
0.0036869
0.00368691
0.00368692
0.00368693
0.00368694
0.00368695
0.00368696
0.00368697
0.00368698
0.00368698
0.00368698
0.00368698
0.00368698
0.00368698
0.00368697
0.00368696
0.00368695
0.00368694
0.00368693
0.00368692
0.00368691
0.0036869
0.00368689
0.00368689
0.00368688
0.00368688
0.00350744
0.00350744
0.00350744
0.00350744
0.00350745
0.00350746
0.00350747
0.00350748
0.00350749
0.00350749
0.0035075
0.00350751
0.00350751
0.00350752
0.00350752
0.00350752
0.00350752
0.00350751
0.00350751
0.0035075
0.00350749
0.00350749
0.00350748
0.00350747
0.00350746
0.00350745
0.00350744
0.00350744
0.00350744
0.00350744
0.00334462
0.00334462
0.00334462
0.00334462
0.00334463
0.00334464
0.00334464
0.00334465
0.00334466
0.00334466
0.00334467
0.00334468
0.00334468
0.00334468
0.00334469
0.00334469
0.00334468
0.00334468
0.00334468
0.00334467
0.00334466
0.00334466
0.00334465
0.00334464
0.00334464
0.00334463
0.00334462
0.00334462
0.00334462
0.00334462
0.00319623
0.00319623
0.00319623
0.00319623
0.00319624
0.00319624
0.00319625
0.00319625
0.00319626
0.00319626
0.00319627
0.00319627
0.00319628
0.00319628
0.00319628
0.00319628
0.00319628
0.00319628
0.00319627
0.00319627
0.00319626
0.00319626
0.00319625
0.00319625
0.00319624
0.00319624
0.00319623
0.00319623
0.00319623
0.00319623
0.00306046
0.00306046
0.00306046
0.00306046
0.00306047
0.00306047
0.00306048
0.00306048
0.00306048
0.00306049
0.00306049
0.0030605
0.0030605
0.0030605
0.0030605
0.0030605
0.0030605
0.0030605
0.0030605
0.00306049
0.00306049
0.00306048
0.00306048
0.00306047
0.00306047
0.00306047
0.00306046
0.00306046
0.00306046
0.00306046
0.00293586
0.00293586
0.00293586
0.00293586
0.00293586
0.00293586
0.00293587
0.00293587
0.00293587
0.00293588
0.00293588
0.00293588
0.00293589
0.00293589
0.00293589
0.00293589
0.00293589
0.00293589
0.00293588
0.00293588
0.00293588
0.00293587
0.00293587
0.00293587
0.00293586
0.00293586
0.00293586
0.00293586
0.00293586
0.00293586
0.00282133
0.00282133
0.00282133
0.00282133
0.00282133
0.00282133
0.00282133
0.00282134
0.00282134
0.00282134
0.00282134
0.00282135
0.00282135
0.00282135
0.00282135
0.00282135
0.00282135
0.00282135
0.00282135
0.00282134
0.00282134
0.00282134
0.00282134
0.00282133
0.00282133
0.00282133
0.00282133
0.00282133
0.00282133
0.00282133
0.00271632
0.00271632
0.00271632
0.00271633
0.00271633
0.00271633
0.00271633
0.00271633
0.00271633
0.00271634
0.00271634
0.00271634
0.00271634
0.00271634
0.00271634
0.00271634
0.00271634
0.00271634
0.00271634
0.00271634
0.00271634
0.00271633
0.00271633
0.00271633
0.00271633
0.00271633
0.00271633
0.00271632
0.00271632
0.00271632
0.00262147
0.00262147
0.00262147
0.00262147
0.00262147
0.00262147
0.00262147
0.00262147
0.00262148
0.00262148
0.00262148
0.00262148
0.00262148
0.00262148
0.00262148
0.00262148
0.00262148
0.00262148
0.00262148
0.00262148
0.00262148
0.00262148
0.00262147
0.00262147
0.00262147
0.00262147
0.00262147
0.00262147
0.00262147
0.00262147
0.00254045
0.00254045
0.00254045
0.00254045
0.00254045
0.00254045
0.00254045
0.00254045
0.00254045
0.00254045
0.00254045
0.00254045
0.00254045
0.00254045
0.00254045
0.00254045
0.00254045
0.00254045
0.00254045
0.00254045
0.00254045
0.00254045
0.00254045
0.00254045
0.00254045
0.00254045
0.00254045
0.00254045
0.00254045
0.00254045
0.00248536
0.00248536
0.00248536
0.00248536
0.00248536
0.00248536
0.00248536
0.00248536
0.00248536
0.00248536
0.00248536
0.00248536
0.00248536
0.00248536
0.00248536
0.00248536
0.00248536
0.00248536
0.00248536
0.00248536
0.00248536
0.00248536
0.00248536
0.00248536
0.00248536
0.00248536
0.00248536
0.00248536
0.00248536
0.00248536
0.0825743
0.0825753
0.0825754
0.082575
0.0825744
0.0825735
0.0825726
0.0825715
0.0825705
0.0825695
0.0825685
0.0825677
0.0825671
0.0825666
0.0825664
0.0825664
0.0825666
0.0825671
0.0825677
0.0825685
0.0825695
0.0825705
0.0825715
0.0825726
0.0825735
0.0825744
0.082575
0.0825754
0.0825753
0.0825743
0.0460592
0.0460585
0.0460586
0.0460589
0.0460594
0.0460599
0.0460604
0.046061
0.0460616
0.0460622
0.0460627
0.0460631
0.0460635
0.0460638
0.0460639
0.0460639
0.0460638
0.0460635
0.0460631
0.0460627
0.0460622
0.0460616
0.046061
0.0460604
0.0460599
0.0460594
0.0460589
0.0460586
0.0460585
0.0460592
0.0284088
0.0284085
0.0284086
0.0284088
0.028409
0.0284094
0.0284098
0.0284102
0.0284106
0.028411
0.0284114
0.0284117
0.0284119
0.0284121
0.0284122
0.0284122
0.0284121
0.0284119
0.0284117
0.0284114
0.028411
0.0284106
0.0284102
0.0284098
0.0284094
0.028409
0.0284088
0.0284085
0.0284085
0.0284088
0.0203077
0.0203076
0.0203077
0.0203078
0.0203081
0.0203083
0.0203086
0.0203089
0.0203092
0.0203095
0.0203098
0.02031
0.0203102
0.0203103
0.0203104
0.0203104
0.0203103
0.0203102
0.02031
0.0203098
0.0203095
0.0203092
0.0203089
0.0203086
0.0203083
0.020308
0.0203078
0.0203077
0.0203076
0.0203077
0.0158097
0.0158097
0.0158098
0.0158099
0.0158101
0.0158103
0.0158105
0.0158108
0.015811
0.0158113
0.0158115
0.0158117
0.0158118
0.0158119
0.015812
0.015812
0.0158119
0.0158118
0.0158117
0.0158115
0.0158113
0.015811
0.0158108
0.0158105
0.0158103
0.0158101
0.0158099
0.0158098
0.0158097
0.0158097
0.0129556
0.0129556
0.0129557
0.0129558
0.0129559
0.0129561
0.0129563
0.0129565
0.0129567
0.0129569
0.0129571
0.0129573
0.0129574
0.0129575
0.0129575
0.0129575
0.0129575
0.0129574
0.0129573
0.0129571
0.0129569
0.0129567
0.0129565
0.0129563
0.0129561
0.0129559
0.0129558
0.0129557
0.0129556
0.0129556
0.0109793
0.0109793
0.0109794
0.0109795
0.0109796
0.0109798
0.0109799
0.0109801
0.0109803
0.0109805
0.0109806
0.0109808
0.0109809
0.0109809
0.010981
0.010981
0.0109809
0.0109809
0.0109808
0.0109806
0.0109805
0.0109803
0.0109801
0.0109799
0.0109798
0.0109796
0.0109795
0.0109794
0.0109793
0.0109793
0.00952804
0.00952806
0.00952811
0.00952819
0.0095283
0.00952843
0.00952857
0.00952872
0.00952888
0.00952902
0.00952916
0.00952928
0.00952937
0.00952943
0.00952947
0.00952947
0.00952943
0.00952937
0.00952927
0.00952916
0.00952902
0.00952887
0.00952872
0.00952857
0.00952843
0.0095283
0.00952819
0.00952811
0.00952806
0.00952804
0.00841632
0.00841634
0.00841639
0.00841646
0.00841656
0.00841667
0.00841679
0.00841692
0.00841705
0.00841717
0.00841729
0.00841739
0.00841747
0.00841753
0.00841756
0.00841756
0.00841753
0.00841747
0.00841739
0.00841729
0.00841717
0.00841705
0.00841692
0.00841679
0.00841667
0.00841656
0.00841646
0.00841639
0.00841634
0.00841632
0.00753718
0.0075372
0.00753724
0.0075373
0.00753738
0.00753748
0.00753758
0.00753769
0.00753781
0.00753791
0.00753801
0.0075381
0.00753817
0.00753822
0.00753824
0.00753824
0.00753822
0.00753817
0.0075381
0.00753801
0.00753791
0.00753781
0.00753769
0.00753758
0.00753748
0.00753738
0.0075373
0.00753724
0.0075372
0.00753718
0.00682441
0.00682442
0.00682446
0.00682451
0.00682458
0.00682466
0.00682475
0.00682485
0.00682494
0.00682503
0.00682512
0.00682519
0.00682525
0.00682529
0.00682531
0.00682531
0.00682529
0.00682525
0.00682519
0.00682512
0.00682503
0.00682494
0.00682484
0.00682475
0.00682466
0.00682458
0.00682451
0.00682446
0.00682442
0.0068244
0.00623479
0.0062348
0.00623483
0.00623488
0.00623494
0.00623501
0.00623508
0.00623517
0.00623525
0.00623533
0.0062354
0.00623546
0.00623551
0.00623554
0.00623556
0.00623556
0.00623554
0.00623551
0.00623546
0.0062354
0.00623533
0.00623525
0.00623517
0.00623508
0.00623501
0.00623494
0.00623488
0.00623483
0.0062348
0.00623479
0.00573892
0.00573893
0.00573896
0.005739
0.00573905
0.0057391
0.00573917
0.00573924
0.00573931
0.00573937
0.00573943
0.00573949
0.00573953
0.00573956
0.00573957
0.00573957
0.00573956
0.00573953
0.00573949
0.00573943
0.00573937
0.00573931
0.00573924
0.00573917
0.0057391
0.00573905
0.005739
0.00573896
0.00573893
0.00573892
0.00531606
0.00531607
0.0053161
0.00531613
0.00531617
0.00531622
0.00531627
0.00531633
0.00531639
0.00531645
0.0053165
0.00531654
0.00531658
0.0053166
0.00531661
0.00531661
0.0053166
0.00531658
0.00531654
0.0053165
0.00531645
0.00531639
0.00531633
0.00531627
0.00531622
0.00531617
0.00531613
0.00531609
0.00531607
0.00531606
0.00495119
0.0049512
0.00495122
0.00495124
0.00495128
0.00495132
0.00495137
0.00495142
0.00495146
0.00495151
0.00495155
0.00495159
0.00495162
0.00495164
0.00495165
0.00495165
0.00495164
0.00495162
0.00495159
0.00495155
0.00495151
0.00495146
0.00495142
0.00495137
0.00495132
0.00495128
0.00495124
0.00495122
0.0049512
0.00495119
0.00463313
0.00463314
0.00463315
0.00463318
0.00463321
0.00463324
0.00463328
0.00463332
0.00463336
0.0046334
0.00463344
0.00463347
0.00463349
0.00463351
0.00463352
0.00463352
0.00463351
0.00463349
0.00463347
0.00463344
0.0046334
0.00463336
0.00463332
0.00463328
0.00463324
0.00463321
0.00463318
0.00463315
0.00463314
0.00463313
0.00435342
0.00435342
0.00435343
0.00435345
0.00435348
0.00435351
0.00435354
0.00435357
0.0043536
0.00435364
0.00435367
0.00435369
0.00435371
0.00435373
0.00435373
0.00435373
0.00435373
0.00435371
0.00435369
0.00435367
0.00435364
0.0043536
0.00435357
0.00435354
0.0043535
0.00435348
0.00435345
0.00435343
0.00435342
0.00435341
0.0041055
0.0041055
0.00410551
0.00410553
0.00410555
0.00410557
0.0041056
0.00410563
0.00410565
0.00410568
0.00410571
0.00410573
0.00410574
0.00410575
0.00410576
0.00410576
0.00410575
0.00410574
0.00410573
0.0041057
0.00410568
0.00410565
0.00410563
0.0041056
0.00410557
0.00410555
0.00410553
0.00410551
0.0041055
0.0041055
0.00388425
0.00388425
0.00388426
0.00388427
0.00388429
0.00388431
0.00388433
0.00388435
0.00388437
0.0038844
0.00388442
0.00388443
0.00388445
0.00388446
0.00388446
0.00388446
0.00388446
0.00388445
0.00388443
0.00388442
0.00388439
0.00388437
0.00388435
0.00388433
0.00388431
0.00388429
0.00388427
0.00388426
0.00388425
0.00388425
0.00368558
0.00368558
0.00368558
0.00368559
0.00368561
0.00368562
0.00368564
0.00368566
0.00368568
0.0036857
0.00368571
0.00368573
0.00368574
0.00368575
0.00368575
0.00368575
0.00368575
0.00368574
0.00368573
0.00368571
0.0036857
0.00368568
0.00368566
0.00368564
0.00368562
0.00368561
0.00368559
0.00368558
0.00368558
0.00368557
0.0035062
0.0035062
0.00350621
0.00350621
0.00350622
0.00350624
0.00350625
0.00350627
0.00350628
0.0035063
0.00350631
0.00350632
0.00350633
0.00350634
0.00350634
0.00350634
0.00350634
0.00350633
0.00350632
0.00350631
0.0035063
0.00350628
0.00350627
0.00350625
0.00350624
0.00350622
0.00350621
0.00350621
0.0035062
0.0035062
0.00334345
0.00334345
0.00334345
0.00334346
0.00334347
0.00334348
0.00334349
0.0033435
0.00334351
0.00334352
0.00334354
0.00334354
0.00334355
0.00334356
0.00334356
0.00334356
0.00334356
0.00334355
0.00334354
0.00334354
0.00334352
0.00334351
0.0033435
0.00334349
0.00334348
0.00334347
0.00334346
0.00334345
0.00334345
0.00334345
0.00319514
0.00319514
0.00319514
0.00319515
0.00319515
0.00319516
0.00319517
0.00319518
0.00319519
0.0031952
0.00319521
0.00319522
0.00319522
0.00319523
0.00319523
0.00319523
0.00319523
0.00319522
0.00319522
0.00319521
0.0031952
0.00319519
0.00319518
0.00319517
0.00319516
0.00319515
0.00319515
0.00319514
0.00319514
0.00319514
0.00305951
0.00305951
0.00305951
0.00305952
0.00305952
0.00305953
0.00305953
0.00305954
0.00305955
0.00305956
0.00305956
0.00305957
0.00305957
0.00305958
0.00305958
0.00305958
0.00305958
0.00305957
0.00305957
0.00305956
0.00305956
0.00305955
0.00305954
0.00305953
0.00305953
0.00305952
0.00305952
0.00305951
0.00305951
0.00305951
0.00293518
0.00293518
0.00293518
0.00293519
0.00293519
0.00293519
0.0029352
0.00293521
0.00293521
0.00293522
0.00293522
0.00293523
0.00293523
0.00293523
0.00293523
0.00293523
0.00293523
0.00293523
0.00293523
0.00293522
0.00293522
0.00293521
0.00293521
0.0029352
0.00293519
0.00293519
0.00293519
0.00293518
0.00293518
0.00293518
0.00282125
0.00282125
0.00282125
0.00282126
0.00282126
0.00282126
0.00282127
0.00282127
0.00282128
0.00282128
0.00282128
0.00282129
0.00282129
0.00282129
0.00282129
0.00282129
0.00282129
0.00282129
0.00282129
0.00282128
0.00282128
0.00282128
0.00282127
0.00282127
0.00282126
0.00282126
0.00282126
0.00282125
0.00282125
0.00282125
0.00271761
0.00271761
0.00271761
0.00271761
0.00271761
0.00271761
0.00271761
0.00271762
0.00271762
0.00271762
0.00271763
0.00271763
0.00271763
0.00271763
0.00271763
0.00271763
0.00271763
0.00271763
0.00271763
0.00271763
0.00271762
0.00271762
0.00271762
0.00271761
0.00271761
0.00271761
0.00271761
0.00271761
0.00271761
0.00271761
0.00262572
0.00262572
0.00262572
0.00262572
0.00262572
0.00262573
0.00262573
0.00262573
0.00262573
0.00262573
0.00262574
0.00262574
0.00262574
0.00262574
0.00262574
0.00262574
0.00262574
0.00262574
0.00262574
0.00262574
0.00262573
0.00262573
0.00262573
0.00262573
0.00262573
0.00262572
0.00262572
0.00262572
0.00262572
0.00262572
0.00255058
0.00255057
0.00255057
0.00255057
0.00255057
0.00255057
0.00255057
0.00255058
0.00255058
0.00255058
0.00255058
0.00255058
0.00255058
0.00255058
0.00255058
0.00255058
0.00255058
0.00255058
0.00255058
0.00255058
0.00255058
0.00255058
0.00255058
0.00255057
0.00255057
0.00255057
0.00255057
0.00255057
0.00255057
0.00255058
0.00250381
0.0025038
0.0025038
0.0025038
0.0025038
0.0025038
0.0025038
0.0025038
0.0025038
0.0025038
0.0025038
0.00250381
0.00250381
0.00250381
0.00250381
0.00250381
0.00250381
0.00250381
0.00250381
0.0025038
0.0025038
0.0025038
0.0025038
0.0025038
0.0025038
0.0025038
0.0025038
0.0025038
0.0025038
0.00250381
0.0726707
0.0726707
0.0726706
0.0726698
0.0726686
0.0726671
0.0726654
0.0726636
0.0726618
0.07266
0.0726583
0.0726569
0.0726557
0.0726549
0.0726545
0.0726545
0.0726549
0.0726557
0.0726569
0.0726583
0.07266
0.0726618
0.0726636
0.0726654
0.0726671
0.0726686
0.0726698
0.0726706
0.0726707
0.0726707
0.0449665
0.0449658
0.044966
0.0449665
0.0449672
0.044968
0.044969
0.04497