/*--------------------------------*- C++ -*----------------------------------*\
| =========                 |                                                 |
| \\      /  F ield         | OpenFOAM: The Open Source CFD Toolbox           |
|  \\    /   O peration     | Version:  2506                                  |
|   \\  /    A nd           | Website:  www.openfoam.com                      |
|    \\/     M anipulation  |                                                 |
\*---------------------------------------------------------------------------*/
FoamFile
{
    version     2.0;
    format      ascii;
    arch        "LSB;label=32;scalar=64";
    class       volScalarField;
    location    "100";
    object      p;
}
// * * * * * * * * * * * * * * * * * * * * * * * * * * * * * * * * * * * * * //

dimensions      [0 2 -2 0 0 0 0];

internalField   nonuniform List<scalar> 
144676
(
-0.24499
-0.244704
-0.24427
-0.243663
-0.242903
-0.242019
-0.241045
-0.240023
-0.238996
-0.238009
-0.237107
-0.236329
-0.235711
-0.235283
-0.235064
-0.235064
-0.235283
-0.235712
-0.23633
-0.237108
-0.23801
-0.238997
-0.240024
-0.241047
-0.24202
-0.242905
-0.243664
-0.244272
-0.244706
-0.244991
-0.228829
-0.22838
-0.227929
-0.227318
-0.226559
-0.225676
-0.224705
-0.223685
-0.22266
-0.221675
-0.220774
-0.219998
-0.219382
-0.218955
-0.218736
-0.218736
-0.218955
-0.219383
-0.219999
-0.220775
-0.221676
-0.222661
-0.223686
-0.224706
-0.225678
-0.226561
-0.22732
-0.227931
-0.228381
-0.228831
-0.191136
-0.190932
-0.190523
-0.189931
-0.189184
-0.188311
-0.18735
-0.18634
-0.185326
-0.184351
-0.183459
-0.182691
-0.182081
-0.181658
-0.181441
-0.181441
-0.181658
-0.182081
-0.182691
-0.18346
-0.184352
-0.185327
-0.186342
-0.187351
-0.188313
-0.189185
-0.189933
-0.190525
-0.190934
-0.191138
-0.163705
-0.163389
-0.162973
-0.162388
-0.161654
-0.160797
-0.159854
-0.158863
-0.157867
-0.15691
-0.156035
-0.15528
-0.154682
-0.154266
-0.154054
-0.154054
-0.154267
-0.154682
-0.155281
-0.156035
-0.156911
-0.157868
-0.158864
-0.159855
-0.160799
-0.161655
-0.16239
-0.162974
-0.163391
-0.163707
-0.140876
-0.1406
-0.140202
-0.139635
-0.138922
-0.13809
-0.137172
-0.136208
-0.13524
-0.13431
-0.133459
-0.132725
-0.132143
-0.131739
-0.131533
-0.131533
-0.13174
-0.132143
-0.132726
-0.133459
-0.13431
-0.135241
-0.136209
-0.137173
-0.138091
-0.138923
-0.139637
-0.140203
-0.140601
-0.140877
-0.121985
-0.121728
-0.121345
-0.1208
-0.120113
-0.119311
-0.118427
-0.117499
-0.116566
-0.11567
-0.11485
-0.114144
-0.113584
-0.113195
-0.112996
-0.112996
-0.113195
-0.113584
-0.114144
-0.114851
-0.115671
-0.116567
-0.1175
-0.118428
-0.119312
-0.120114
-0.120801
-0.121346
-0.121729
-0.121986
-0.106094
-0.105859
-0.105496
-0.104977
-0.104321
-0.103556
-0.102712
-0.101827
-0.100937
-0.100082
-0.0993
-0.0986264
-0.098092
-0.0977212
-0.0975315
-0.0975316
-0.0977214
-0.0980921
-0.0986266
-0.0993002
-0.100082
-0.100937
-0.101827
-0.102713
-0.103556
-0.104322
-0.104977
-0.105497
-0.10586
-0.106095
-0.0925944
-0.0923793
-0.092037
-0.0915463
-0.0909267
-0.0902031
-0.0894057
-0.0885683
-0.0877272
-0.0869194
-0.0861807
-0.0855443
-0.0850395
-0.0846893
-0.0845101
-0.0845102
-0.0846895
-0.0850397
-0.0855445
-0.0861808
-0.0869196
-0.0877276
-0.0885687
-0.089406
-0.0902035
-0.0909271
-0.0915467
-0.0920375
-0.0923798
-0.092595
-0.0810026
-0.0808064
-0.0804866
-0.080027
-0.0794465
-0.0787685
-0.0780214
-0.0772371
-0.0764494
-0.075693
-0.0750014
-0.0744057
-0.0739332
-0.0736055
-0.0734378
-0.073438
-0.0736057
-0.0739334
-0.0744059
-0.0750014
-0.075693
-0.0764495
-0.0772372
-0.0780215
-0.0787686
-0.0794466
-0.0800272
-0.0804868
-0.0808067
-0.0810029
-0.0709472
-0.0707689
-0.0704724
-0.0700458
-0.0695066
-0.0688769
-0.0681831
-0.0674548
-0.0667237
-0.0660217
-0.0653799
-0.0648273
-0.064389
-0.0640851
-0.0639296
-0.0639297
-0.0640853
-0.0643892
-0.0648274
-0.0653799
-0.0660215
-0.0667235
-0.0674547
-0.0681829
-0.0688767
-0.0695064
-0.0700457
-0.0704725
-0.0707689
-0.0709472
-0.0621295
-0.0619683
-0.0616957
-0.0613028
-0.0608062
-0.0602263
-0.0595874
-0.058917
-0.058244
-0.0575981
-0.0570077
-0.0564994
-0.0560962
-0.0558168
-0.0556738
-0.0556739
-0.0558169
-0.0560963
-0.0564993
-0.0570074
-0.0575977
-0.0582436
-0.0589165
-0.0595869
-0.0602258
-0.0608058
-0.0613025
-0.0616954
-0.061968
-0.0621292
-0.0543033
-0.0541584
-0.0539096
-0.0535507
-0.053097
-0.0525672
-0.0519837
-0.0513715
-0.0507572
-0.0501676
-0.0496288
-0.0491651
-0.0487973
-0.0485425
-0.048412
-0.0484121
-0.0485425
-0.0487973
-0.0491648
-0.0496284
-0.050167
-0.0507565
-0.0513708
-0.051983
-0.0525665
-0.0530963
-0.05355
-0.0539089
-0.0541576
-0.0543025
-0.0472598
-0.0471304
-0.0469051
-0.0465798
-0.0461685
-0.0456882
-0.0451594
-0.0446047
-0.0440481
-0.0435141
-0.0430263
-0.0426065
-0.0422736
-0.0420429
-0.0419249
-0.0419249
-0.0420428
-0.0422734
-0.042606
-0.0430257
-0.0435134
-0.0440473
-0.0446038
-0.0451585
-0.0456873
-0.0461675
-0.0465788
-0.0469041
-0.0471293
-0.0472586
-0.040818
-0.0407032
-0.0405007
-0.0402079
-0.0398378
-0.0394056
-0.0389298
-0.0384309
-0.0379303
-0.0374502
-0.0370117
-0.0366344
-0.0363353
-0.0361281
-0.036022
-0.0360219
-0.0361279
-0.036335
-0.0366339
-0.037011
-0.0374493
-0.0379294
-0.0384298
-0.0389287
-0.0394044
-0.0398365
-0.0402066
-0.0404992
-0.0407017
-0.0408163
-0.0348165
-0.0347156
-0.0345348
-0.0342732
-0.0339424
-0.0335562
-0.0331311
-0.0326853
-0.0322382
-0.0318095
-0.031418
-0.0310812
-0.0308144
-0.0306294
-0.0305348
-0.0305347
-0.0306292
-0.0308139
-0.0310807
-0.0314172
-0.0318085
-0.0322371
-0.032684
-0.0331297
-0.0335547
-0.0339408
-0.0342715
-0.0345329
-0.0347136
-0.0348144
-0.0291085
-0.0290206
-0.0288603
-0.028628
-0.0283342
-0.0279913
-0.0276139
-0.0272182
-0.0268214
-0.026441
-0.0260937
-0.0257951
-0.0255584
-0.0253945
-0.0253106
-0.0253105
-0.0253942
-0.025558
-0.0257945
-0.0260929
-0.0264399
-0.0268201
-0.0272167
-0.0276122
-0.0279895
-0.0283322
-0.0286258
-0.0288579
-0.0290181
-0.0291059
-0.0235559
-0.0234801
-0.0233388
-0.0231339
-0.0228746
-0.0225719
-0.0222388
-0.0218896
-0.0215395
-0.021204
-0.0208978
-0.0206345
-0.0204259
-0.0202814
-0.0202075
-0.0202074
-0.0202811
-0.0204254
-0.0206338
-0.0208968
-0.0212028
-0.021538
-0.0218878
-0.0222368
-0.0225696
-0.0228721
-0.0231312
-0.0233359
-0.0234771
-0.0235528
-0.0180245
-0.0179601
-0.0178363
-0.0176565
-0.0174288
-0.0171631
-0.0168707
-0.0165642
-0.016257
-0.0159627
-0.0156941
-0.0154632
-0.0152803
-0.0151537
-0.0150888
-0.0150887
-0.0151533
-0.0152797
-0.0154624
-0.0156929
-0.0159612
-0.0162553
-0.0165622
-0.0168683
-0.0171604
-0.0174259
-0.0176533
-0.0178329
-0.0179565
-0.0180208
-0.012378
-0.0123245
-0.0122167
-0.0120597
-0.0118609
-0.0116287
-0.0113732
-0.0111055
-0.0108373
-0.0105803
-0.0103458
-0.0101443
-0.00998467
-0.00987411
-0.00981748
-0.00981729
-0.00987357
-0.00998382
-0.0101431
-0.0103443
-0.0105785
-0.0108352
-0.0111031
-0.0113705
-0.0116255
-0.0118574
-0.012056
-0.0122127
-0.0123203
-0.0123737
-0.00647101
-0.00642787
-0.00633465
-0.00619826
-0.00602531
-0.00582332
-0.00560106
-0.0053682
-0.00513488
-0.00491135
-0.00470746
-0.00453225
-0.00439347
-0.00429731
-0.00424804
-0.0042478
-0.00429661
-0.00439234
-0.00453072
-0.00470559
-0.0049092
-0.00513246
-0.00536543
-0.0055979
-0.00581976
-0.0060214
-0.00619406
-0.00633018
-0.00642315
-0.00646614
-0.000137831
-0.000105166
-2.50676e-05
9.28962e-05
0.000242774
0.000417925
0.000610659
0.000812584
0.00101489
0.00120869
0.00138545
0.00153738
0.00165773
0.0017411
0.00178383
0.00178411
0.00174191
0.00165903
0.00153916
0.00138761
0.00121112
0.00101761
0.000815678
0.000614131
0.000421783
0.000247031
9.74805e-05
-2.02196e-05
-0.000100085
-0.000132605
0.0068226
0.00684414
0.00691242
0.00701409
0.00714363
0.00729516
0.00746193
0.00763667
0.00781175
0.0079795
0.00813251
0.00826404
0.00836821
0.00844034
0.00847732
0.0084776
0.00844117
0.00836956
0.00826592
0.00813484
0.00798218
0.0078148
0.00764008
0.00746568
0.00729929
0.00714818
0.00701895
0.00691753
0.00684943
0.00682798
0.0146711
0.0146801
0.0147377
0.0148251
0.0149369
0.0150678
0.0152121
0.0153633
0.0155148
0.01566
0.0157924
0.0159062
0.0159964
0.0160588
0.0160908
0.0160911
0.0160596
0.0159978
0.0159082
0.0157949
0.0156629
0.0155182
0.0153671
0.0152162
0.0150724
0.0149418
0.0148302
0.0147431
0.0146856
0.0146767
0.0237659
0.0237597
0.0238077
0.0238826
0.0239791
0.0240924
0.0242174
0.0243485
0.0244799
0.0246058
0.0247206
0.0248194
0.0248976
0.0249517
0.0249795
0.0249798
0.0249526
0.0248991
0.0248215
0.0247233
0.024609
0.0244837
0.0243527
0.0242221
0.0240975
0.0239845
0.0238882
0.0238135
0.0237656
0.0237719
0.0346201
0.0345953
0.0346347
0.0346989
0.0347824
0.034881
0.0349898
0.0351039
0.0352184
0.0353281
0.0354282
0.0355144
0.0355826
0.0356298
0.0356541
0.0356544
0.0356308
0.0355841
0.0355166
0.0354311
0.0353316
0.0352225
0.0351086
0.0349949
0.0348865
0.0347882
0.0347049
0.0346409
0.0346018
0.0346267
0.0479884
0.0479401
0.047972
0.0480272
0.0481001
0.0481865
0.0482821
0.0483824
0.048483
0.0485795
0.0486676
0.0487434
0.0488035
0.0488451
0.0488665
0.0488668
0.048846
0.048805
0.0487456
0.0486705
0.0485831
0.0484872
0.0483872
0.0482874
0.0481922
0.0481062
0.0480336
0.0479787
0.047947
0.0479956
0.0649592
0.0648728
0.0648966
0.0649446
0.065009
0.0650858
0.0651709
0.0652603
0.0653501
0.0654361
0.0655147
0.0655823
0.0656359
0.0656731
0.0656922
0.0656925
0.065674
0.0656374
0.0655845
0.0655175
0.0654396
0.0653542
0.0652651
0.0651762
0.0650916
0.0650153
0.0649513
0.0649038
0.0648802
0.0649666
0.0870647
0.0869877
0.087006
0.0870474
0.0871052
0.0871748
0.0872521
0.0873335
0.0874151
0.0874934
0.0875649
0.0876264
0.0876752
0.0877091
0.0877265
0.0877269
0.0877101
0.0876768
0.0876286
0.0875677
0.0874969
0.0874193
0.0873383
0.0872576
0.0871809
0.0871118
0.0870545
0.0870135
0.0869954
0.0870724
0.118513
0.118636
0.118689
0.118733
0.118788
0.118854
0.118926
0.119002
0.119079
0.119152
0.119219
0.119276
0.119322
0.119353
0.11937
0.11937
0.119354
0.119323
0.119278
0.119221
0.119155
0.119083
0.119007
0.118932
0.11886
0.118795
0.11874
0.118697
0.118644
0.118521
0.162403
0.161826
0.161812
0.161832
0.161876
0.161935
0.162004
0.162076
0.16215
0.16222
0.162285
0.16234
0.162384
0.162414
0.16243
0.162431
0.162416
0.162386
0.162342
0.162287
0.162224
0.162154
0.162081
0.162009
0.161941
0.161883
0.161839
0.16182
0.161834
0.162411
-0.23036
-0.230086
-0.229663
-0.229041
-0.228256
-0.227338
-0.226325
-0.225261
-0.22419
-0.223161
-0.222219
-0.221407
-0.220762
-0.220314
-0.220085
-0.220085
-0.220314
-0.220762
-0.221408
-0.22222
-0.223162
-0.224191
-0.225262
-0.226327
-0.227339
-0.228258
-0.229043
-0.229665
-0.230088
-0.230362
-0.212077
-0.211799
-0.21138
-0.210754
-0.209967
-0.209049
-0.208037
-0.206973
-0.205903
-0.204874
-0.203933
-0.203121
-0.202477
-0.202029
-0.2018
-0.2018
-0.20203
-0.202477
-0.203122
-0.203934
-0.204875
-0.205904
-0.206974
-0.208038
-0.209051
-0.209969
-0.210756
-0.211381
-0.211801
-0.212079
-0.179274
-0.179178
-0.178782
-0.178176
-0.177402
-0.176494
-0.175492
-0.174438
-0.173378
-0.172359
-0.171427
-0.170623
-0.169984
-0.169541
-0.169314
-0.169315
-0.169542
-0.169985
-0.170623
-0.171428
-0.17236
-0.173379
-0.174439
-0.175493
-0.176495
-0.177403
-0.178177
-0.178784
-0.17918
-0.179275
-0.156262
-0.156031
-0.155623
-0.155021
-0.154259
-0.153367
-0.152384
-0.151349
-0.150309
-0.149309
-0.148394
-0.147605
-0.146978
-0.146543
-0.146321
-0.146321
-0.146544
-0.146979
-0.147605
-0.148395
-0.14931
-0.15031
-0.15135
-0.152385
-0.153369
-0.154261
-0.155023
-0.155625
-0.156032
-0.156264
-0.135512
-0.13533
-0.134942
-0.13436
-0.13362
-0.132754
-0.131798
-0.130793
-0.129782
-0.128811
-0.127921
-0.127154
-0.126546
-0.126123
-0.125907
-0.125907
-0.126124
-0.126546
-0.127155
-0.127922
-0.128811
-0.129783
-0.130794
-0.131799
-0.132755
-0.133622
-0.134361
-0.134943
-0.135331
-0.135513
-0.118093
-0.117904
-0.117526
-0.116965
-0.116252
-0.115419
-0.114498
-0.113531
-0.112558
-0.111624
-0.110768
-0.110031
-0.109445
-0.109039
-0.108831
-0.108831
-0.109039
-0.109445
-0.110031
-0.110768
-0.111624
-0.112559
-0.113532
-0.114499
-0.11542
-0.116254
-0.116966
-0.117527
-0.117905
-0.118094
-0.103186
-0.103005
-0.102644
-0.102109
-0.10143
-0.100635
-0.0997579
-0.098836
-0.0979094
-0.0970187
-0.0962038
-0.0955014
-0.0949438
-0.094557
-0.094359
-0.094359
-0.0945572
-0.094944
-0.0955016
-0.096204
-0.0970191
-0.0979099
-0.0988367
-0.0997586
-0.100636
-0.101431
-0.10211
-0.102645
-0.103006
-0.103187
-0.0903853
-0.0902133
-0.0898707
-0.0893651
-0.0887237
-0.0879731
-0.087145
-0.0862748
-0.0854003
-0.0845599
-0.0837911
-0.0831285
-0.0826027
-0.0822379
-0.0820512
-0.0820513
-0.0822382
-0.082603
-0.0831288
-0.0837912
-0.0845601
-0.0854006
-0.0862752
-0.0871454
-0.0879736
-0.0887242
-0.0893658
-0.0898714
-0.090214
-0.090386
-0.0793039
-0.079142
-0.0788206
-0.0783474
-0.0777471
-0.0770447
-0.0762701
-0.0754563
-0.0746387
-0.0738531
-0.0731345
-0.0725154
-0.0720242
-0.0716834
-0.0715091
-0.0715092
-0.0716837
-0.0720244
-0.0725156
-0.0731346
-0.0738532
-0.0746388
-0.0754565
-0.0762703
-0.0770449
-0.0777473
-0.0783477
-0.078821
-0.0791424
-0.0793042
-0.0696336
-0.0694827
-0.0691839
-0.0687449
-0.068188
-0.0675367
-0.0668185
-0.0660642
-0.0653066
-0.0645788
-0.0639133
-0.06334
-0.0628851
-0.0625697
-0.0624083
-0.0624084
-0.0625699
-0.0628853
-0.06334
-0.0639132
-0.0645787
-0.0653065
-0.0660641
-0.0668184
-0.0675366
-0.068188
-0.0687449
-0.0691841
-0.0694828
-0.0696336
-0.0611146
-0.0609753
-0.0607
-0.060296
-0.0597839
-0.059185
-0.0585249
-0.0578317
-0.0571357
-0.0564672
-0.0558561
-0.0553298
-0.0549123
-0.0546228
-0.0544747
-0.0544747
-0.0546229
-0.0549123
-0.0553297
-0.0558558
-0.0564669
-0.0571353
-0.0578314
-0.0585245
-0.0591847
-0.0597837
-0.0602958
-0.0606998
-0.060975
-0.0611143
-0.0535262
-0.0533985
-0.053147
-0.0527784
-0.0523112
-0.051765
-0.0511631
-0.0505313
-0.0498971
-0.0492881
-0.0487315
-0.0482523
-0.0478722
-0.0476087
-0.0474738
-0.0474738
-0.0476086
-0.047872
-0.048252
-0.0487311
-0.0492876
-0.0498965
-0.0505307
-0.0511625
-0.0517645
-0.0523106
-0.0527778
-0.0531464
-0.0533979
-0.0535254
-0.0466766
-0.0465606
-0.0463326
-0.0459988
-0.0455759
-0.0450817
-0.0445372
-0.0439657
-0.0433922
-0.0428417
-0.0423387
-0.0419057
-0.0415624
-0.0413243
-0.0412025
-0.0412025
-0.0413242
-0.041562
-0.0419052
-0.0423381
-0.042841
-0.0433914
-0.0439649
-0.0445364
-0.0450809
-0.0455751
-0.045998
-0.0463317
-0.0465596
-0.0466754
-0.0403967
-0.0402921
-0.0400869
-0.0397869
-0.039407
-0.038963
-0.0384739
-0.0379608
-0.037446
-0.036952
-0.0365007
-0.0361123
-0.0358044
-0.035591
-0.0354817
-0.0354816
-0.0355907
-0.035804
-0.0361117
-0.0365
-0.0369511
-0.037445
-0.0379598
-0.0384728
-0.0389618
-0.0394058
-0.0397858
-0.0400856
-0.0402906
-0.0403952
-0.0345342
-0.0344404
-0.0342571
-0.0339893
-0.0336503
-0.0332542
-0.0328179
-0.0323603
-0.0319013
-0.031461
-0.0310589
-0.0307129
-0.0304387
-0.0302486
-0.0301513
-0.0301512
-0.0302483
-0.0304382
-0.0307123
-0.0310581
-0.0314601
-0.0319002
-0.0323591
-0.0328165
-0.0332527
-0.0336487
-0.0339877
-0.0342553
-0.0344385
-0.0345323
-0.0289491
-0.0288654
-0.0287026
-0.0284652
-0.0281645
-0.0278134
-0.0274267
-0.0270212
-0.0266146
-0.0262247
-0.0258686
-0.0255624
-0.0253197
-0.0251515
-0.0250654
-0.0250653
-0.0251512
-0.0253192
-0.0255618
-0.0258678
-0.0262235
-0.0266133
-0.0270197
-0.027425
-0.0278115
-0.0281625
-0.0284631
-0.0287004
-0.028863
-0.0289466
-0.0235094
-0.0234351
-0.0232914
-0.023082
-0.022817
-0.0225075
-0.0221668
-0.0218096
-0.0214515
-0.0211082
-0.0207948
-0.0205253
-0.0203118
-0.0201638
-0.0200881
-0.0200879
-0.0201635
-0.0203112
-0.0205245
-0.0207937
-0.0211068
-0.0214499
-0.0218078
-0.0221648
-0.0225052
-0.0228145
-0.0230793
-0.0232885
-0.0234322
-0.0235064
-0.0180871
-0.0180213
-0.017895
-0.0177113
-0.0174789
-0.0172076
-0.016909
-0.016596
-0.0162824
-0.0159817
-0.0157073
-0.0154714
-0.0152845
-0.015155
-0.0150887
-0.0150886
-0.0151546
-0.0152838
-0.0154704
-0.015706
-0.0159801
-0.0162806
-0.016594
-0.0169067
-0.0172049
-0.0174759
-0.0177081
-0.0178916
-0.0180177
-0.0180835
-0.012553
-0.0124947
-0.0123842
-0.0122238
-0.012021
-0.0117843
-0.0115239
-0.011251
-0.0109775
-0.0107154
-0.0104763
-0.0102707
-0.0101079
-0.00999507
-0.00993726
-0.00993704
-0.00999445
-0.0101069
-0.0102694
-0.0104746
-0.0107135
-0.0109754
-0.0112486
-0.0115212
-0.0117812
-0.0120176
-0.0122202
-0.0123803
-0.0124906
-0.0125487
-0.00677096
-0.00671927
-0.00662278
-0.00648336
-0.00630708
-0.00610141
-0.00587518
-0.00563816
-0.00540066
-0.0051731
-0.00496551
-0.00478706
-0.00464569
-0.00454772
-0.0044975
-0.00449722
-0.00454694
-0.00464446
-0.00478541
-0.00496353
-0.00517091
-0.00539823
-0.00563541
-0.00587207
-0.00609794
-0.00630327
-0.00647923
-0.00661835
-0.00671459
-0.0067661
-0.000589196
-0.00054306
-0.000458941
-0.000338048
-0.00018529
-7.13316e-06
0.000188775
0.000393994
0.000599601
0.000796587
0.000976299
0.0011308
0.00125318
0.00133797
0.00138146
0.00138176
0.00133882
0.00125451
0.0011326
0.000978472
0.000799032
0.000602326
0.000397042
0.000192159
-3.3783e-06
-0.000181146
-0.000333551
-0.000454131
-0.000538014
-0.000583993
0.00617209
0.00621373
0.00628721
0.0063919
0.00652402
0.00667802
0.00684732
0.00702468
0.00720238
0.00737263
0.00752796
0.00766149
0.00776724
0.00784046
0.00787802
0.00787832
0.00784131
0.00776858
0.00766334
0.00753026
0.00737531
0.00720542
0.00702805
0.00685103
0.0066821
0.00652846
0.00639666
0.00629227
0.00621901
0.00617749
0.01374
0.0137781
0.0138426
0.0139333
0.0140475
0.0141806
0.0143269
0.0144801
0.0146337
0.0147809
0.0149151
0.0150305
0.0151218
0.0151851
0.0152175
0.0152179
0.015186
0.0151233
0.0150324
0.0149176
0.0147838
0.0146371
0.014484
0.0143311
0.0141852
0.0140524
0.0139384
0.013848
0.0137837
0.0137457
0.022419
0.0224542
0.0225113
0.02259
0.022689
0.0228042
0.0229309
0.0230636
0.0231966
0.0233241
0.0234403
0.0235402
0.0236194
0.0236741
0.0237023
0.0237026
0.0236751
0.0236208
0.0235423
0.023443
0.0233273
0.0232005
0.023068
0.0229358
0.0228095
0.0226945
0.0225957
0.0225172
0.0224602
0.0224252
0.0326392
0.0326709
0.0327222
0.0327909
0.0328771
0.0329775
0.0330877
0.0332032
0.033319
0.0334299
0.0335311
0.0336181
0.033687
0.0337347
0.0337592
0.0337595
0.0337356
0.0336885
0.0336202
0.0335339
0.0334334
0.0333231
0.033208
0.033093
0.0329832
0.0328831
0.0327971
0.0327286
0.0326775
0.0326459
0.0450344
0.0450598
0.0451066
0.0451671
0.0452429
0.045331
0.0454279
0.0455293
0.045631
0.0457284
0.0458173
0.0458937
0.0459543
0.0459962
0.0460178
0.0460181
0.0459971
0.0459557
0.0458958
0.0458201
0.0457319
0.0456352
0.0455342
0.0454333
0.045337
0.0452491
0.0451736
0.0451134
0.0450668
0.0450416
0.0605445
0.0605473
0.0605891
0.0606431
0.0607106
0.0607892
0.0608755
0.0609659
0.0610564
0.0611432
0.0612223
0.0612905
0.0613444
0.0613819
0.0614011
0.0614014
0.0613828
0.0613459
0.0612926
0.0612252
0.0611467
0.0610607
0.0609707
0.060881
0.0607952
0.0607171
0.0606499
0.0605963
0.0605547
0.060552
0.0804203
0.0803651
0.0803915
0.0804373
0.0804978
0.080569
0.0806473
0.0807295
0.0808117
0.0808906
0.0809625
0.0810244
0.0810735
0.0811075
0.0811251
0.0811254
0.0811085
0.0810751
0.0810267
0.0809654
0.0808941
0.0808159
0.0807343
0.0806528
0.0805751
0.0805045
0.0804444
0.080399
0.0803728
0.080428
0.106196
0.106346
0.106406
0.106456
0.106516
0.106583
0.106657
0.106734
0.106811
0.106884
0.106951
0.107009
0.107055
0.107087
0.107103
0.107104
0.107088
0.107057
0.107012
0.106954
0.106888
0.106815
0.106739
0.106662
0.10659
0.106523
0.106463
0.106414
0.106354
0.106205
0.142953
0.142429
0.142449
0.14248
0.14253
0.142592
0.142662
0.142735
0.142809
0.14288
0.142945
0.143
0.143044
0.143075
0.143091
0.143091
0.143076
0.143046
0.143003
0.142948
0.142884
0.142813
0.14274
0.142667
0.142598
0.142537
0.142487
0.142457
0.142437
0.142962
-0.187459
-0.187336
-0.186913
-0.186252
-0.185408
-0.184416
-0.18332
-0.182166
-0.181004
-0.179885
-0.178861
-0.177977
-0.177274
-0.176787
-0.176537
-0.176537
-0.176787
-0.177275
-0.177978
-0.178862
-0.179887
-0.181005
-0.182167
-0.183321
-0.184418
-0.18541
-0.186254
-0.186915
-0.187338
-0.187461
-0.182952
-0.18271
-0.18227
-0.181602
-0.180757
-0.179764
-0.178668
-0.177515
-0.176353
-0.175235
-0.174211
-0.173327
-0.172624
-0.172137
-0.171887
-0.171887
-0.172137
-0.172625
-0.173328
-0.174212
-0.175237
-0.176355
-0.177516
-0.17867
-0.179766
-0.180758
-0.181604
-0.182272
-0.182712
-0.182954
-0.160694
-0.160574
-0.160141
-0.15949
-0.158657
-0.157677
-0.156593
-0.155452
-0.154303
-0.153197
-0.152183
-0.151309
-0.150614
-0.150131
-0.149884
-0.149884
-0.150132
-0.150614
-0.15131
-0.152184
-0.153198
-0.154304
-0.155453
-0.156595
-0.157679
-0.158659
-0.159492
-0.160142
-0.160576
-0.160696
-0.144015
-0.143765
-0.143324
-0.142677
-0.141857
-0.140895
-0.139833
-0.138715
-0.137589
-0.136506
-0.135513
-0.134657
-0.133976
-0.133503
-0.133261
-0.133262
-0.133504
-0.133977
-0.134657
-0.135514
-0.136507
-0.137591
-0.138716
-0.139835
-0.140897
-0.141859
-0.142679
-0.143326
-0.143767
-0.144017
-0.126815
-0.126619
-0.1262
-0.125576
-0.124782
-0.12385
-0.122821
-0.121737
-0.120646
-0.119595
-0.118633
-0.117803
-0.117144
-0.116686
-0.116452
-0.116452
-0.116686
-0.117144
-0.117804
-0.118634
-0.119596
-0.120646
-0.121738
-0.122822
-0.123852
-0.124784
-0.125577
-0.126201
-0.126621
-0.126817
-0.111879
-0.111665
-0.111255
-0.110654
-0.109891
-0.108996
-0.108008
-0.106967
-0.10592
-0.104913
-0.10399
-0.103194
-0.102562
-0.102123
-0.101898
-0.101898
-0.102123
-0.102562
-0.103195
-0.103991
-0.104914
-0.105921
-0.106968
-0.108009
-0.108997
-0.109892
-0.110656
-0.111257
-0.111666
-0.111881
-0.0986131
-0.0984092
-0.0980197
-0.097448
-0.0967224
-0.0958719
-0.0949325
-0.0939442
-0.0929499
-0.0919932
-0.0911172
-0.0903616
-0.0897614
-0.0893449
-0.0891316
-0.0891317
-0.0893451
-0.0897617
-0.0903619
-0.0911175
-0.0919937
-0.0929505
-0.093945
-0.0949334
-0.0958729
-0.0967234
-0.0974492
-0.0980209
-0.0984104
-0.0986143
-0.0869699
-0.0867746
-0.0864064
-0.0858676
-0.085184
-0.0843833
-0.0834992
-0.0825693
-0.0816341
-0.0807345
-0.0799109
-0.0792007
-0.0786367
-0.0782454
-0.078045
-0.0780451
-0.0782456
-0.0786371
-0.079201
-0.0799112
-0.0807348
-0.0816345
-0.0825699
-0.0834998
-0.084384
-0.0851848
-0.0858684
-0.0864073
-0.0867755
-0.0869708
-0.0767245
-0.0765411
-0.0761968
-0.0756939
-0.0750561
-0.0743093
-0.073485
-0.0726184
-0.0717469
-0.070909
-0.070142
-0.0694808
-0.0689558
-0.0685916
-0.0684051
-0.0684052
-0.0685918
-0.0689561
-0.069481
-0.0701421
-0.0709091
-0.0717472
-0.0726187
-0.0734854
-0.0743098
-0.0750566
-0.0756945
-0.0761974
-0.0765416
-0.076725
-0.0676782
-0.0675077
-0.0671889
-0.0667237
-0.0661339
-0.0654436
-0.0646819
-0.0638814
-0.0630767
-0.0623032
-0.0615954
-0.0609854
-0.0605012
-0.0601652
-0.0599933
-0.0599933
-0.0601653
-0.0605013
-0.0609854
-0.0615954
-0.0623032
-0.0630767
-0.0638815
-0.064682
-0.0654438
-0.0661342
-0.066724
-0.0671892
-0.0675079
-0.0676783
-0.0596374
-0.0594807
-0.059188
-0.0587614
-0.0582207
-0.057588
-0.0568903
-0.0561572
-0.0554205
-0.0547126
-0.0540651
-0.0535071
-0.0530643
-0.0527571
-0.0525999
-0.0525999
-0.0527571
-0.0530642
-0.0535069
-0.0540648
-0.0547123
-0.0554203
-0.056157
-0.0568902
-0.057588
-0.0582207
-0.0587614
-0.059188
-0.0594806
-0.0596371
-0.0524248
-0.052282
-0.0520156
-0.0516275
-0.0511359
-0.0505609
-0.0499268
-0.0492609
-0.0485919
-0.0479493
-0.0473617
-0.0468555
-0.0464539
-0.0461753
-0.0460327
-0.0460326
-0.0461751
-0.0464536
-0.0468551
-0.0473612
-0.0479488
-0.0485915
-0.0492605
-0.0499265
-0.0505605
-0.0511356
-0.0516273
-0.0520153
-0.0522816
-0.0524242
-0.0458777
-0.0457488
-0.0455083
-0.045158
-0.0447144
-0.0441957
-0.043624
-0.0430237
-0.0424208
-0.041842
-0.0413128
-0.0408571
-0.0404956
-0.0402449
-0.0401166
-0.0401165
-0.0402446
-0.0404952
-0.0408566
-0.0413122
-0.0418413
-0.0424202
-0.043023
-0.0436233
-0.044195
-0.0447138
-0.0451574
-0.0455076
-0.045748
-0.0458768
-0.0398471
-0.0397317
-0.0395161
-0.0392023
-0.0388049
-0.0383405
-0.0378286
-0.0372913
-0.036752
-0.0362344
-0.0357613
-0.035354
-0.0350309
-0.0348069
-0.0346922
-0.0346921
-0.0348066
-0.0350304
-0.0353533
-0.0357605
-0.0362335
-0.0367512
-0.0372904
-0.0378276
-0.0383394
-0.0388039
-0.0392012
-0.039515
-0.0397305
-0.0398458
-0.0341951
-0.0340926
-0.0339007
-0.0336215
-0.033268
-0.0328549
-0.0323998
-0.0319222
-0.0314429
-0.0309831
-0.030563
-0.0302014
-0.0299146
-0.0297158
-0.029614
-0.0296139
-0.0297155
-0.0299141
-0.0302007
-0.0305621
-0.030982
-0.0314418
-0.0319209
-0.0323983
-0.0328534
-0.0332665
-0.03362
-0.0338992
-0.034091
-0.0341934
-0.028793
-0.0287027
-0.028533
-0.0282861
-0.0279736
-0.0276085
-0.0272063
-0.0267844
-0.0263613
-0.0259553
-0.0255846
-0.0252655
-0.0250126
-0.0248373
-0.0247475
-0.0247474
-0.0248369
-0.0250121
-0.0252647
-0.0255835
-0.025954
-0.0263598
-0.0267829
-0.0272045
-0.0276066
-0.0279716
-0.0282841
-0.0285309
-0.0287005
-0.0287909
-0.0235182
-0.0234392
-0.02329
-0.023073
-0.0227983
-0.0224774
-0.0221241
-0.0217536
-0.0213821
-0.0210258
-0.0207005
-0.0204206
-0.0201988
-0.0200451
-0.0199663
-0.0199662
-0.0200447
-0.0201982
-0.0204197
-0.0206993
-0.0210243
-0.0213804
-0.0217518
-0.0221221
-0.0224751
-0.0227958
-0.0230704
-0.0232874
-0.0234365
-0.0235155
-0.0182513
-0.0181827
-0.0180523
-0.0178625
-0.0176223
-0.0173418
-0.0170331
-0.0167095
-0.016385
-0.0160739
-0.0157899
-0.0155457
-0.0153521
-0.0152179
-0.0151492
-0.015149
-0.0152174
-0.0153513
-0.0155445
-0.0157884
-0.0160721
-0.0163831
-0.0167074
-0.0170307
-0.0173392
-0.0176194
-0.0178594
-0.0180491
-0.0181794
-0.0182479
-0.0128724
-0.0128136
-0.0127
-0.0125348
-0.0123258
-0.0120818
-0.0118133
-0.0115319
-0.0112498
-0.0109794
-0.0107326
-0.0105203
-0.0103522
-0.0102356
-0.0101758
-0.0101756
-0.0102349
-0.0103511
-0.0105189
-0.0107307
-0.0109773
-0.0112476
-0.0115294
-0.0118106
-0.0120788
-0.0123225
-0.0125313
-0.0126963
-0.0128096
-0.0128683
-0.00725709
-0.00720719
-0.00710882
-0.00696563
-0.00678445
-0.00657299
-0.00634034
-0.00609656
-0.00585226
-0.00561812
-0.00540446
-0.00522072
-0.00507512
-0.00497418
-0.00492242
-0.00492216
-0.00497344
-0.00507391
-0.00521906
-0.00540244
-0.00561588
-0.00584981
-0.00609384
-0.00633731
-0.00656966
-0.00678079
-0.00696163
-0.00710453
-0.00720267
-0.00725238
-0.00127047
-0.00122887
-0.0011439
-0.00102014
-0.000863568
-0.000680884
-0.000479944
-0.000269415
-5.84552e-05
0.000143709
0.000328203
0.00048685
0.000612538
0.000699644
0.00074432
0.000744582
0.000700398
0.000613769
0.000488563
0.000330326
0.000146146
-5.57339e-05
-0.000266409
-0.000476646
-0.000677255
-0.000859569
-0.00101577
-0.0011392
-0.00122391
-0.00126534
0.00523987
0.00527374
0.00534703
0.00545377
0.0055888
0.0057463
0.00591954
0.00610105
0.00628294
0.00645724
0.00661629
0.00675303
0.00686132
0.00693634
0.00697483
0.00697509
0.00693711
0.00686257
0.00675477
0.0066185
0.00645988
0.00628597
0.00610442
0.00592325
0.00575037
0.00559321
0.0054585
0.00535207
0.00527903
0.0052453
0.0124527
0.0124795
0.0125427
0.0126347
0.0127511
0.0128869
0.0130362
0.0131927
0.0133496
0.0134998
0.0136369
0.0137548
0.0138481
0.0139127
0.0139459
0.0139462
0.0139135
0.0138494
0.0137566
0.0136393
0.0135027
0.013353
0.0131966
0.0130406
0.0128916
0.0127561
0.0126399
0.0125481
0.0124851
0.0124585
0.0205829
0.0206035
0.0206583
0.0207378
0.0208384
0.0209557
0.0210848
0.02122
0.0213555
0.0214853
0.0216038
0.0217056
0.0217861
0.0218419
0.0218706
0.0218709
0.0218428
0.0217875
0.0217075
0.0216063
0.0214885
0.0213593
0.0212244
0.0210898
0.0209611
0.0208441
0.0207436
0.0206642
0.0206096
0.0205892
0.0298877
0.0299044
0.0299526
0.0300219
0.0301094
0.0302113
0.0303234
0.0304409
0.0305585
0.0306713
0.0307741
0.0308625
0.0309324
0.0309809
0.0310058
0.0310061
0.0309818
0.0309338
0.0308644
0.0307767
0.0306746
0.0305627
0.0304457
0.0303288
0.0302172
0.0301155
0.0300282
0.0299591
0.0299111
0.0298945
0.0406611
0.0406809
0.040725
0.0407862
0.0408632
0.0409526
0.0410509
0.0411539
0.041257
0.0413557
0.0414458
0.0415233
0.0415846
0.0416271
0.0416489
0.0416493
0.041628
0.041586
0.0415253
0.0414486
0.0413593
0.0412612
0.0411588
0.0410565
0.0409587
0.0408696
0.0407928
0.0407319
0.0406881
0.0406684
0.0531836
0.0532238
0.053268
0.053324
0.0533932
0.053473
0.0535605
0.053652
0.0537437
0.0538315
0.0539115
0.0539804
0.0540349
0.0540727
0.0540921
0.0540925
0.0540736
0.0540365
0.0539826
0.0539145
0.0538351
0.053748
0.053657
0.0535661
0.0534791
0.0533997
0.0533309
0.0532753
0.0532313
0.0531911
0.067543
0.0675896
0.0676259
0.0676756
0.0677383
0.0678106
0.06789
0.067973
0.0680561
0.0681357
0.0682083
0.0682708
0.0683202
0.0683545
0.0683722
0.0683725
0.0683556
0.0683219
0.0682731
0.0682114
0.0681394
0.0680603
0.0679778
0.0678955
0.0678168
0.0677449
0.0676826
0.0676334
0.0675973
0.0675509
0.0823902
0.0826813
0.0827491
0.0828042
0.0828671
0.0829362
0.0830107
0.0830883
0.0831658
0.0832401
0.0833077
0.0833659
0.0834119
0.0834439
0.0834604
0.0834608
0.0834451
0.0834138
0.0833684
0.0833108
0.0832437
0.08317
0.0830931
0.0830162
0.0829423
0.0828737
0.0828113
0.0827567
0.0826893
0.0823984
0.0997501
0.0999582
0.100036
0.100084
0.100142
0.100207
0.100278
0.100352
0.100427
0.100498
0.100563
0.100619
0.100664
0.100694
0.10071
0.100711
0.100696
0.100666
0.100622
0.100567
0.100502
0.100431
0.100357
0.100283
0.100213
0.100148
0.100091
0.100044
0.0999664
0.0997586
-0.149444
-0.149241
-0.14874
-0.147999
-0.147055
-0.145943
-0.144712
-0.143414
-0.142105
-0.140842
-0.139684
-0.138683
-0.137887
-0.137334
-0.13705
-0.137051
-0.137334
-0.137888
-0.138684
-0.139685
-0.140844
-0.142106
-0.143415
-0.144714
-0.145945
-0.147057
-0.148001
-0.148742
-0.149243
-0.149446
-0.154657
-0.154325
-0.153812
-0.153062
-0.152115
-0.151002
-0.149771
-0.148472
-0.147163
-0.145901
-0.144742
-0.14374
-0.142944
-0.14239
-0.142106
-0.142106
-0.142391
-0.142945
-0.143741
-0.144743
-0.145902
-0.147165
-0.148474
-0.149772
-0.151004
-0.152116
-0.153064
-0.153814
-0.154327
-0.154659
-0.139936
-0.139764
-0.139264
-0.138533
-0.1376
-0.136501
-0.135284
-0.134001
-0.132707
-0.131459
-0.130314
-0.129324
-0.128537
-0.12799
-0.12771
-0.12771
-0.127991
-0.128538
-0.129325
-0.130315
-0.13146
-0.132708
-0.134003
-0.135286
-0.136503
-0.137602
-0.138535
-0.139266
-0.139766
-0.139938
-0.128723
-0.128441
-0.127941
-0.127217
-0.1263