/*--------------------------------*- C++ -*----------------------------------*\
| =========                 |                                                 |
| \\      /  F ield         | OpenFOAM: The Open Source CFD Toolbox           |
|  \\    /   O peration     | Version:  2506                                  |
|   \\  /    A nd           | Website:  www.openfoam.com                      |
|    \\/     M anipulation  |                                                 |
\*---------------------------------------------------------------------------*/
FoamFile
{
    version     2.0;
    format      ascii;
    arch        "LSB;label=32;scalar=64";
    class       volScalarField;
    location    "40";
    object      epsilon;
}
// * * * * * * * * * * * * * * * * * * * * * * * * * * * * * * * * * * * * * //

dimensions      [0 2 -3 0 0 0 0];

internalField   nonuniform List<scalar> 
144676
(
0.116221
0.116222
0.116222
0.116222
0.116222
0.116222
0.116222
0.116222
0.116222
0.116222
0.116221
0.116221
0.116221
0.116221
0.116221
0.116221
0.116221
0.116221
0.116221
0.116221
0.116221
0.116221
0.116221
0.116222
0.116222
0.116222
0.116222
0.116222
0.116222
0.116221
0.0471271
0.0471271
0.0471272
0.0471273
0.0471274
0.0471275
0.0471276
0.0471277
0.0471279
0.047128
0.0471281
0.0471282
0.0471283
0.0471283
0.0471283
0.0471283
0.0471283
0.0471282
0.0471282
0.0471281
0.0471279
0.0471278
0.0471277
0.0471276
0.0471275
0.0471274
0.0471273
0.0471272
0.0471271
0.047127
0.0283372
0.0283372
0.0283372
0.0283372
0.0283373
0.0283374
0.0283375
0.0283376
0.0283376
0.0283377
0.0283378
0.0283379
0.0283379
0.028338
0.028338
0.028338
0.028338
0.0283379
0.0283379
0.0283378
0.0283377
0.0283376
0.0283376
0.0283375
0.0283374
0.0283373
0.0283372
0.0283372
0.0283371
0.0283371
0.0202983
0.0202983
0.0202983
0.0202983
0.0202984
0.0202984
0.0202985
0.0202986
0.0202986
0.0202987
0.0202988
0.0202988
0.0202989
0.0202989
0.0202989
0.0202989
0.0202989
0.0202989
0.0202988
0.0202988
0.0202987
0.0202986
0.0202986
0.0202985
0.0202984
0.0202984
0.0202983
0.0202983
0.0202983
0.0202983
0.0158301
0.0158301
0.0158301
0.0158302
0.0158302
0.0158303
0.0158303
0.0158304
0.0158305
0.0158305
0.0158306
0.0158306
0.0158307
0.0158307
0.0158307
0.0158307
0.0158307
0.0158307
0.0158306
0.0158306
0.0158305
0.0158305
0.0158304
0.0158303
0.0158303
0.0158302
0.0158302
0.0158301
0.0158301
0.0158301
0.0129792
0.0129792
0.0129792
0.0129793
0.0129793
0.0129793
0.0129794
0.0129794
0.0129795
0.0129796
0.0129796
0.0129796
0.0129797
0.0129797
0.0129797
0.0129797
0.0129797
0.0129797
0.0129796
0.0129796
0.0129796
0.0129795
0.0129794
0.0129794
0.0129793
0.0129793
0.0129793
0.0129792
0.0129792
0.0129792
0.0109998
0.0109998
0.0109998
0.0109998
0.0109999
0.0109999
0.0109999
0.011
0.011
0.0110001
0.0110001
0.0110002
0.0110002
0.0110002
0.0110002
0.0110002
0.0110002
0.0110002
0.0110002
0.0110001
0.0110001
0.011
0.011
0.0109999
0.0109999
0.0109999
0.0109998
0.0109998
0.0109998
0.0109998
0.00954464
0.00954463
0.00954463
0.00954465
0.00954468
0.00954472
0.00954476
0.0095448
0.00954484
0.00954488
0.00954491
0.00954494
0.00954497
0.00954498
0.00954499
0.00954499
0.00954498
0.00954497
0.00954494
0.00954491
0.00954488
0.00954484
0.0095448
0.00954476
0.00954472
0.00954468
0.00954465
0.00954463
0.00954462
0.00954463
0.00842962
0.00842961
0.00842962
0.00842963
0.00842966
0.00842969
0.00842972
0.00842976
0.0084298
0.00842983
0.00842986
0.00842989
0.00842991
0.00842992
0.00842993
0.00842993
0.00842992
0.00842991
0.00842988
0.00842986
0.00842983
0.00842979
0.00842976
0.00842972
0.00842969
0.00842966
0.00842963
0.00842961
0.00842961
0.00842962
0.00754791
0.00754789
0.00754789
0.00754791
0.00754793
0.00754796
0.00754799
0.00754802
0.00754805
0.00754808
0.00754811
0.00754813
0.00754815
0.00754816
0.00754817
0.00754817
0.00754816
0.00754815
0.00754813
0.00754811
0.00754808
0.00754805
0.00754802
0.00754799
0.00754796
0.00754793
0.00754791
0.00754789
0.00754789
0.0075479
0.00683317
0.00683316
0.00683316
0.00683317
0.00683319
0.00683321
0.00683324
0.00683327
0.00683329
0.00683332
0.00683334
0.00683336
0.00683338
0.00683339
0.00683339
0.00683339
0.00683339
0.00683338
0.00683336
0.00683334
0.00683332
0.00683329
0.00683327
0.00683324
0.00683321
0.00683319
0.00683317
0.00683316
0.00683315
0.00683317
0.00624207
0.00624206
0.00624206
0.00624207
0.00624209
0.00624211
0.00624213
0.00624215
0.00624218
0.0062422
0.00624222
0.00624223
0.00624225
0.00624226
0.00624226
0.00624226
0.00624226
0.00624225
0.00624223
0.00624222
0.0062422
0.00624217
0.00624215
0.00624213
0.00624211
0.00624208
0.00624207
0.00624206
0.00624206
0.00624207
0.00574508
0.00574506
0.00574506
0.00574507
0.00574509
0.0057451
0.00574512
0.00574514
0.00574516
0.00574518
0.0057452
0.00574521
0.00574522
0.00574523
0.00574524
0.00574524
0.00574523
0.00574522
0.00574521
0.0057452
0.00574518
0.00574516
0.00574514
0.00574512
0.0057451
0.00574509
0.00574507
0.00574506
0.00574506
0.00574508
0.00532137
0.00532135
0.00532135
0.00532136
0.00532137
0.00532139
0.0053214
0.00532142
0.00532144
0.00532145
0.00532147
0.00532148
0.00532149
0.0053215
0.0053215
0.0053215
0.0053215
0.00532149
0.00532148
0.00532147
0.00532145
0.00532144
0.00532142
0.0053214
0.00532139
0.00532137
0.00532136
0.00532135
0.00532135
0.00532136
0.00495584
0.00495582
0.00495582
0.00495583
0.00495584
0.00495586
0.00495587
0.00495589
0.0049559
0.00495591
0.00495593
0.00495594
0.00495594
0.00495595
0.00495595
0.00495595
0.00495595
0.00495594
0.00495594
0.00495592
0.00495591
0.0049559
0.00495588
0.00495587
0.00495585
0.00495584
0.00495583
0.00495582
0.00495582
0.00495583
0.00463727
0.00463726
0.00463726
0.00463727
0.00463728
0.00463729
0.00463731
0.00463732
0.00463733
0.00463734
0.00463735
0.00463736
0.00463737
0.00463737
0.00463737
0.00463737
0.00463737
0.00463737
0.00463736
0.00463735
0.00463734
0.00463733
0.00463732
0.0046373
0.00463729
0.00463728
0.00463727
0.00463726
0.00463726
0.00463727
0.00435717
0.00435716
0.00435716
0.00435717
0.00435718
0.00435719
0.0043572
0.00435721
0.00435722
0.00435723
0.00435724
0.00435725
0.00435725
0.00435726
0.00435726
0.00435726
0.00435726
0.00435725
0.00435725
0.00435724
0.00435723
0.00435722
0.00435721
0.0043572
0.00435719
0.00435717
0.00435716
0.00435715
0.00435715
0.00435717
0.00410895
0.00410894
0.00410894
0.00410895
0.00410896
0.00410897
0.00410898
0.00410899
0.004109
0.00410901
0.00410902
0.00410902
0.00410903
0.00410903
0.00410903
0.00410903
0.00410903
0.00410903
0.00410902
0.00410902
0.00410901
0.004109
0.00410899
0.00410898
0.00410897
0.00410896
0.00410895
0.00410894
0.00410894
0.00410895
0.00388747
0.00388746
0.00388746
0.00388747
0.00388748
0.00388749
0.0038875
0.00388751
0.00388752
0.00388752
0.00388753
0.00388754
0.00388754
0.00388754
0.00388754
0.00388754
0.00388754
0.00388754
0.00388753
0.00388753
0.00388752
0.00388752
0.00388751
0.0038875
0.00388749
0.00388748
0.00388747
0.00388746
0.00388746
0.00388747
0.00368862
0.00368861
0.00368861
0.00368862
0.00368863
0.00368864
0.00368865
0.00368866
0.00368867
0.00368867
0.00368868
0.00368868
0.00368868
0.00368869
0.00368869
0.00368869
0.00368869
0.00368868
0.00368868
0.00368868
0.00368867
0.00368867
0.00368866
0.00368865
0.00368864
0.00368863
0.00368862
0.00368861
0.00368861
0.00368861
0.00350909
0.00350909
0.00350909
0.0035091
0.00350912
0.00350913
0.00350913
0.00350914
0.00350915
0.00350915
0.00350916
0.00350916
0.00350916
0.00350916
0.00350916
0.00350916
0.00350916
0.00350916
0.00350916
0.00350916
0.00350915
0.00350915
0.00350914
0.00350913
0.00350913
0.00350911
0.0035091
0.00350909
0.00350909
0.00350909
0.00334621
0.00334621
0.00334621
0.00334623
0.00334624
0.00334625
0.00334625
0.00334626
0.00334627
0.00334627
0.00334627
0.00334628
0.00334628
0.00334628
0.00334628
0.00334628
0.00334628
0.00334628
0.00334628
0.00334627
0.00334627
0.00334627
0.00334626
0.00334625
0.00334625
0.00334624
0.00334622
0.00334621
0.00334621
0.00334621
0.00319775
0.00319775
0.00319776
0.00319777
0.00319778
0.00319779
0.0031978
0.00319781
0.00319781
0.00319782
0.00319782
0.00319782
0.00319782
0.00319782
0.00319782
0.00319782
0.00319782
0.00319782
0.00319782
0.00319782
0.00319782
0.00319781
0.00319781
0.0031978
0.00319779
0.00319778
0.00319777
0.00319776
0.00319775
0.00319775
0.00306189
0.0030619
0.00306191
0.00306192
0.00306193
0.00306194
0.00306195
0.00306195
0.00306196
0.00306196
0.00306196
0.00306196
0.00306197
0.00306197
0.00306197
0.00306197
0.00306197
0.00306197
0.00306196
0.00306196
0.00306196
0.00306196
0.00306195
0.00306195
0.00306194
0.00306193
0.00306192
0.00306191
0.0030619
0.00306189
0.00293711
0.00293712
0.00293713
0.00293714
0.00293715
0.00293716
0.00293717
0.00293718
0.00293718
0.00293718
0.00293718
0.00293719
0.00293719
0.00293719
0.00293719
0.00293719
0.00293719
0.00293719
0.00293719
0.00293718
0.00293718
0.00293718
0.00293718
0.00293717
0.00293716
0.00293715
0.00293714
0.00293713
0.00293712
0.00293711
0.00282217
0.00282218
0.00282219
0.00282221
0.00282222
0.00282223
0.00282223
0.00282224
0.00282224
0.00282224
0.00282225
0.00282225
0.00282225
0.00282225
0.00282225
0.00282225
0.00282225
0.00282225
0.00282225
0.00282225
0.00282224
0.00282224
0.00282224
0.00282223
0.00282223
0.00282222
0.00282221
0.00282219
0.00282218
0.00282217
0.00271616
0.00271617
0.00271618
0.00271619
0.0027162
0.00271621
0.00271621
0.00271622
0.00271622
0.00271622
0.00271623
0.00271623
0.00271623
0.00271623
0.00271623
0.00271623
0.00271623
0.00271623
0.00271623
0.00271623
0.00271622
0.00271622
0.00271622
0.00271621
0.00271621
0.0027162
0.00271619
0.00271618
0.00271617
0.00271616
0.0026187
0.00261871
0.00261873
0.00261874
0.00261874
0.00261875
0.00261876
0.00261876
0.00261876
0.00261876
0.00261876
0.00261876
0.00261876
0.00261876
0.00261876
0.00261876
0.00261876
0.00261876
0.00261876
0.00261876
0.00261876
0.00261876
0.00261876
0.00261875
0.00261875
0.00261874
0.00261873
0.00261872
0.00261871
0.0026187
0.00253119
0.0025312
0.00253121
0.00253122
0.00253122
0.00253123
0.00253123
0.00253123
0.00253123
0.00253123
0.00253123
0.00253123
0.00253123
0.00253123
0.00253123
0.00253123
0.00253123
0.00253123
0.00253123
0.00253123
0.00253123
0.00253123
0.00253123
0.00253123
0.00253122
0.00253122
0.00253121
0.00253121
0.0025312
0.00253119
0.00246264
0.00246265
0.00246265
0.00246266
0.00246266
0.00246266
0.00246266
0.00246266
0.00246266
0.00246267
0.00246267
0.00246267
0.00246267
0.00246267
0.00246267
0.00246267
0.00246267
0.00246267
0.00246267
0.00246267
0.00246266
0.00246266
0.00246266
0.00246266
0.00246266
0.00246266
0.00246266
0.00246265
0.00246265
0.00246265
0.0963929
0.0963944
0.0963946
0.0963946
0.0963944
0.0963943
0.0963941
0.0963938
0.0963935
0.096393
0.0963925
0.0963919
0.0963914
0.096391
0.0963908
0.0963909
0.0963911
0.0963914
0.0963917
0.0963921
0.0963924
0.0963929
0.0963934
0.096394
0.0963945
0.0963948
0.0963951
0.0963953
0.096395
0.0963931
0.0468504
0.0468501
0.0468502
0.0468504
0.0468507
0.0468509
0.0468512
0.0468516
0.0468519
0.0468522
0.0468524
0.0468527
0.0468529
0.046853
0.0468531
0.0468531
0.046853
0.0468529
0.0468527
0.0468524
0.0468521
0.0468518
0.0468515
0.0468512
0.0468509
0.0468507
0.0468504
0.0468502
0.0468501
0.0468503
0.0283975
0.0283973
0.0283973
0.0283974
0.0283976
0.0283978
0.028398
0.0283982
0.0283984
0.0283986
0.0283988
0.028399
0.0283992
0.0283993
0.0283993
0.0283993
0.0283993
0.0283992
0.028399
0.0283988
0.0283986
0.0283984
0.0283982
0.028398
0.0283978
0.0283976
0.0283974
0.0283973
0.0283973
0.0283975
0.0203009
0.0203008
0.0203008
0.0203009
0.020301
0.0203011
0.0203013
0.0203015
0.0203017
0.0203018
0.020302
0.0203021
0.0203022
0.0203023
0.0203024
0.0203024
0.0203023
0.0203022
0.0203021
0.020302
0.0203018
0.0203017
0.0203015
0.0203013
0.0203012
0.020301
0.0203009
0.0203008
0.0203008
0.0203009
0.015818
0.015818
0.015818
0.0158181
0.0158182
0.0158183
0.0158184
0.0158186
0.0158187
0.0158189
0.015819
0.0158191
0.0158192
0.0158192
0.0158193
0.0158193
0.0158192
0.0158192
0.0158191
0.015819
0.0158189
0.0158187
0.0158186
0.0158184
0.0158183
0.0158182
0.015818
0.015818
0.0158179
0.015818
0.0129669
0.0129668
0.0129668
0.0129669
0.012967
0.0129671
0.0129672
0.0129674
0.0129675
0.0129676
0.0129677
0.0129678
0.0129679
0.0129679
0.0129679
0.0129679
0.0129679
0.0129679
0.0129678
0.0129677
0.0129676
0.0129675
0.0129673
0.0129672
0.0129671
0.012967
0.0129669
0.0129668
0.0129668
0.0129669
0.0109898
0.0109897
0.0109897
0.0109898
0.0109899
0.01099
0.0109901
0.0109902
0.0109903
0.0109904
0.0109905
0.0109905
0.0109906
0.0109907
0.0109907
0.0109907
0.0109907
0.0109906
0.0109905
0.0109905
0.0109904
0.0109903
0.0109902
0.0109901
0.01099
0.0109899
0.0109898
0.0109897
0.0109897
0.0109897
0.00953688
0.00953684
0.00953685
0.0095369
0.00953697
0.00953705
0.00953714
0.00953724
0.00953733
0.00953742
0.0095375
0.00953757
0.00953762
0.00953766
0.00953768
0.00953768
0.00953766
0.00953762
0.00953756
0.00953749
0.00953741
0.00953732
0.00953723
0.00953714
0.00953705
0.00953697
0.0095369
0.00953685
0.00953683
0.00953687
0.00842369
0.00842366
0.00842366
0.0084237
0.00842376
0.00842383
0.00842391
0.008424
0.00842408
0.00842415
0.00842422
0.00842428
0.00842433
0.00842436
0.00842438
0.00842438
0.00842436
0.00842433
0.00842428
0.00842422
0.00842415
0.00842407
0.00842399
0.00842391
0.00842383
0.00842376
0.0084237
0.00842366
0.00842365
0.00842368
0.00754335
0.00754332
0.00754332
0.00754336
0.00754341
0.00754347
0.00754354
0.00754362
0.00754369
0.00754375
0.00754381
0.00754386
0.0075439
0.00754393
0.00754395
0.00754395
0.00754393
0.0075439
0.00754386
0.00754381
0.00754375
0.00754368
0.00754361
0.00754354
0.00754347
0.00754341
0.00754335
0.00754332
0.00754331
0.00754335
0.00682965
0.00682962
0.00682962
0.00682965
0.00682969
0.00682975
0.00682981
0.00682987
0.00682993
0.00682999
0.00683004
0.00683009
0.00683012
0.00683015
0.00683016
0.00683016
0.00683015
0.00683012
0.00683009
0.00683004
0.00682999
0.00682993
0.00682987
0.00682981
0.00682975
0.00682969
0.00682964
0.00682961
0.00682961
0.00682964
0.00623932
0.00623929
0.00623929
0.00623931
0.00623936
0.00623941
0.00623946
0.00623951
0.00623957
0.00623962
0.00623966
0.0062397
0.00623973
0.00623975
0.00623976
0.00623976
0.00623975
0.00623973
0.0062397
0.00623966
0.00623961
0.00623956
0.00623951
0.00623946
0.0062394
0.00623935
0.00623931
0.00623928
0.00623928
0.00623931
0.00574289
0.00574287
0.00574287
0.00574289
0.00574293
0.00574297
0.00574302
0.00574307
0.00574311
0.00574316
0.00574319
0.00574322
0.00574325
0.00574327
0.00574328
0.00574328
0.00574327
0.00574325
0.00574322
0.00574319
0.00574315
0.00574311
0.00574306
0.00574302
0.00574297
0.00574293
0.00574289
0.00574286
0.00574286
0.00574289
0.00531961
0.00531958
0.00531958
0.00531961
0.00531964
0.00531968
0.00531972
0.00531977
0.0053198
0.00531984
0.00531987
0.0053199
0.00531992
0.00531993
0.00531994
0.00531994
0.00531993
0.00531992
0.0053199
0.00531987
0.00531984
0.0053198
0.00531976
0.00531972
0.00531968
0.00531964
0.0053196
0.00531958
0.00531958
0.0053196
0.00495439
0.00495437
0.00495437
0.0049544
0.00495443
0.00495447
0.00495451
0.00495454
0.00495457
0.0049546
0.00495463
0.00495465
0.00495467
0.00495468
0.00495469
0.00495469
0.00495468
0.00495467
0.00495465
0.00495463
0.0049546
0.00495457
0.00495454
0.0049545
0.00495446
0.00495443
0.00495439
0.00495437
0.00495436
0.00495438
0.00463606
0.00463604
0.00463604
0.00463607
0.0046361
0.00463614
0.00463617
0.0046362
0.00463623
0.00463626
0.00463628
0.0046363
0.00463631
0.00463632
0.00463633
0.00463633
0.00463632
0.00463631
0.0046363
0.00463628
0.00463626
0.00463623
0.0046362
0.00463617
0.00463613
0.0046361
0.00463606
0.00463604
0.00463603
0.00463605
0.00435611
0.0043561
0.00435611
0.00435614
0.00435617
0.0043562
0.00435624
0.00435626
0.00435629
0.00435631
0.00435633
0.00435634
0.00435635
0.00435636
0.00435637
0.00435637
0.00435636
0.00435635
0.00435634
0.00435633
0.00435631
0.00435629
0.00435626
0.00435623
0.0043562
0.00435617
0.00435613
0.0043561
0.0043561
0.00435611
0.00410801
0.004108
0.00410801
0.00410804
0.00410808
0.00410811
0.00410814
0.00410816
0.00410818
0.0041082
0.00410822
0.00410823
0.00410824
0.00410825
0.00410825
0.00410825
0.00410825
0.00410824
0.00410823
0.00410822
0.0041082
0.00410818
0.00410816
0.00410813
0.00410811
0.00410807
0.00410804
0.00410801
0.00410799
0.004108
0.00388659
0.00388659
0.00388661
0.00388664
0.00388668
0.00388671
0.00388674
0.00388676
0.00388678
0.00388679
0.00388681
0.00388682
0.00388682
0.00388683
0.00388683
0.00388683
0.00388683
0.00388682
0.00388682
0.00388681
0.00388679
0.00388678
0.00388676
0.00388673
0.00388671
0.00388667
0.00388664
0.00388661
0.00388659
0.00388659
0.00368778
0.00368779
0.00368781
0.00368784
0.00368788
0.00368791
0.00368794
0.00368796
0.00368798
0.00368799
0.003688
0.00368801
0.00368802
0.00368802
0.00368802
0.00368802
0.00368802
0.00368801
0.00368801
0.003688
0.00368799
0.00368797
0.00368796
0.00368794
0.00368791
0.00368788
0.00368784
0.00368781
0.00368778
0.00368778
0.00350828
0.00350829
0.00350832
0.00350835
0.00350839
0.00350842
0.00350845
0.00350847
0.00350848
0.00350849
0.0035085
0.00350851
0.00350852
0.00350852
0.00350852
0.00350852
0.00350852
0.00350852
0.00350851
0.0035085
0.00350849
0.00350848
0.00350847
0.00350845
0.00350842
0.00350839
0.00350835
0.00350831
0.00350829
0.00350827
0.0033454
0.00334542
0.00334545
0.00334549
0.00334553
0.00334556
0.00334558
0.0033456
0.00334562
0.00334563
0.00334564
0.00334564
0.00334565
0.00334565
0.00334565
0.00334565
0.00334565
0.00334564
0.00334564
0.00334563
0.00334563
0.00334562
0.0033456
0.00334558
0.00334556
0.00334552
0.00334549
0.00334545
0.00334541
0.0033454
0.00319695
0.00319697
0.00319701
0.00319705
0.00319709
0.00319712
0.00319715
0.00319717
0.00319718
0.00319719
0.0031972
0.0031972
0.0031972
0.00319721
0.00319721
0.00319721
0.00319721
0.0031972
0.0031972
0.00319719
0.00319719
0.00319718
0.00319716
0.00319715
0.00319712
0.00319709
0.00319705
0.00319701
0.00319697
0.00319695
0.00306113
0.00306115
0.00306119
0.00306124
0.00306128
0.00306131
0.00306133
0.00306135
0.00306136
0.00306137
0.00306138
0.00306138
0.00306138
0.00306139
0.00306139
0.00306139
0.00306139
0.00306138
0.00306138
0.00306138
0.00306137
0.00306136
0.00306135
0.00306133
0.00306131
0.00306127
0.00306123
0.00306119
0.00306115
0.00306112
0.00293647
0.0029365
0.00293654
0.00293659
0.00293662
0.00293666
0.00293668
0.0029367
0.00293671
0.00293672
0.00293672
0.00293672
0.00293673
0.00293673
0.00293673
0.00293673
0.00293673
0.00293673
0.00293672
0.00293672
0.00293671
0.00293671
0.0029367
0.00293668
0.00293665
0.00293662
0.00293658
0.00293654
0.00293649
0.00293646
0.00282188
0.00282191
0.00282196
0.002822
0.00282204
0.00282207
0.00282209
0.00282211
0.00282212
0.00282213
0.00282213
0.00282213
0.00282213
0.00282214
0.00282214
0.00282214
0.00282213
0.00282213
0.00282213
0.00282213
0.00282212
0.00282212
0.00282211
0.00282209
0.00282207
0.00282204
0.002822
0.00282195
0.00282191
0.00282187
0.00271682
0.00271686
0.0027169
0.00271694
0.00271698
0.002717
0.00271702
0.00271704
0.00271704
0.00271705
0.00271705
0.00271706
0.00271706
0.00271706
0.00271706
0.00271706
0.00271706
0.00271706
0.00271705
0.00271705
0.00271705
0.00271704
0.00271703
0.00271702
0.002717
0.00271697
0.00271694
0.0027169
0.00271685
0.00271681
0.0026219
0.00262194
0.00262198
0.00262202
0.00262204
0.00262207
0.00262208
0.00262209
0.0026221
0.0026221
0.0026221
0.00262211
0.00262211
0.00262211
0.00262211
0.00262211
0.00262211
0.00262211
0.00262211
0.0026221
0.0026221
0.0026221
0.00262209
0.00262208
0.00262206
0.00262204
0.00262201
0.00262198
0.00262194
0.0026219
0.00254082
0.00254085
0.00254088
0.00254091
0.00254093
0.00254094
0.00254095
0.00254096
0.00254096
0.00254096
0.00254097
0.00254097
0.00254097
0.00254097
0.00254097
0.00254097
0.00254097
0.00254097
0.00254097
0.00254097
0.00254096
0.00254096
0.00254096
0.00254095
0.00254094
0.00254093
0.00254091
0.00254088
0.00254085
0.00254082
0.00248568
0.0024857
0.00248572
0.00248573
0.00248574
0.00248575
0.00248575
0.00248576
0.00248576
0.00248576
0.00248576
0.00248576
0.00248576
0.00248576
0.00248576
0.00248576
0.00248576
0.00248576
0.00248576
0.00248576
0.00248576
0.00248576
0.00248576
0.00248575
0.00248575
0.00248574
0.00248573
0.00248572
0.0024857
0.00248568
0.0825697
0.0825708
0.082571
0.0825707
0.0825702
0.0825696
0.0825689
0.082568
0.082567
0.0825659
0.0825648
0.0825637
0.0825629
0.0825623
0.082562
0.0825621
0.0825625
0.0825631
0.0825638
0.0825645
0.0825654
0.0825664
0.0825675
0.0825687
0.0825697
0.0825706
0.0825712
0.0825716
0.0825712
0.0825699
0.0460635
0.0460628
0.0460628
0.0460632
0.0460636
0.0460641
0.0460647
0.0460653
0.0460659
0.0460665
0.046067
0.0460675
0.0460679
0.0460682
0.0460683
0.0460683
0.0460682
0.0460679
0.0460675
0.046067
0.0460664
0.0460658
0.0460652
0.0460646
0.0460641
0.0460636
0.0460631
0.0460628
0.0460627
0.0460634
0.0284124
0.0284121
0.0284121
0.0284123
0.0284126
0.028413
0.0284134
0.0284138
0.0284142
0.0284147
0.028415
0.0284154
0.0284157
0.0284159
0.028416
0.028416
0.0284159
0.0284157
0.0284154
0.028415
0.0284146
0.0284142
0.0284138
0.0284134
0.0284129
0.0284126
0.0284123
0.028412
0.028412
0.0284124
0.0203107
0.0203106
0.0203106
0.0203108
0.020311
0.0203113
0.0203116
0.0203119
0.0203123
0.0203126
0.0203129
0.0203131
0.0203133
0.0203135
0.0203136
0.0203136
0.0203135
0.0203133
0.0203131
0.0203129
0.0203126
0.0203123
0.0203119
0.0203116
0.0203113
0.020311
0.0203108
0.0203106
0.0203105
0.0203107
0.0158124
0.0158124
0.0158124
0.0158125
0.0158127
0.0158129
0.0158132
0.0158135
0.0158137
0.015814
0.0158142
0.0158144
0.0158146
0.0158147
0.0158148
0.0158148
0.0158147
0.0158146
0.0158144
0.0158142
0.015814
0.0158137
0.0158135
0.0158132
0.0158129
0.0158127
0.0158125
0.0158124
0.0158123
0.0158124
0.0129581
0.0129581
0.0129581
0.0129582
0.0129584
0.0129586
0.0129588
0.012959
0.0129592
0.0129594
0.0129596
0.0129598
0.0129599
0.01296
0.0129601
0.0129601
0.01296
0.0129599
0.0129598
0.0129596
0.0129594
0.0129592
0.012959
0.0129588
0.0129585
0.0129584
0.0129582
0.0129581
0.012958
0.0129581
0.0109817
0.0109817
0.0109817
0.0109818
0.0109819
0.0109821
0.0109823
0.0109825
0.0109827
0.0109829
0.010983
0.0109832
0.0109833
0.0109834
0.0109834
0.0109834
0.0109834
0.0109833
0.0109832
0.010983
0.0109828
0.0109827
0.0109825
0.0109823
0.0109821
0.0109819
0.0109818
0.0109817
0.0109816
0.0109817
0.00953036
0.0095303
0.00953032
0.0095304
0.00953053
0.00953068
0.00953084
0.00953101
0.00953118
0.00953133
0.00953148
0.0095316
0.0095317
0.00953176
0.0095318
0.00953179
0.00953176
0.00953169
0.00953159
0.00953147
0.00953132
0.00953116
0.009531
0.00953084
0.00953067
0.00953053
0.0095304
0.00953031
0.00953029
0.00953034
0.00841859
0.00841854
0.00841855
0.00841863
0.00841874
0.00841887
0.00841901
0.00841916
0.0084193
0.00841943
0.00841956
0.00841966
0.00841974
0.0084198
0.00841983
0.00841983
0.0084198
0.00841974
0.00841966
0.00841955
0.00841943
0.00841929
0.00841915
0.008419
0.00841886
0.00841873
0.00841862
0.00841854
0.00841853
0.00841858
0.00753941
0.00753936
0.00753937
0.00753944
0.00753953
0.00753965
0.00753977
0.0075399
0.00754003
0.00754014
0.00754025
0.00754034
0.00754041
0.00754046
0.00754048
0.00754048
0.00754045
0.0075404
0.00754033
0.00754024
0.00754014
0.00754002
0.0075399
0.00753977
0.00753965
0.00753953
0.00753943
0.00753936
0.00753935
0.00753939
0.0068266
0.00682656
0.00682657
0.00682662
0.00682671
0.00682682
0.00682692
0.00682703
0.00682714
0.00682724
0.00682733
0.00682741
0.00682747
0.00682751
0.00682753
0.00682753
0.00682751
0.00682746
0.0068274
0.00682733
0.00682724
0.00682714
0.00682703
0.00682692
0.00682681
0.00682671
0.00682662
0.00682656
0.00682655
0.00682658
0.00623694
0.00623691
0.00623692
0.00623698
0.00623706
0.00623715
0.00623725
0.00623734
0.00623743
0.00623752
0.00623759
0.00623766
0.00623771
0.00623774
0.00623776
0.00623776
0.00623774
0.00623771
0.00623765
0.00623759
0.00623751
0.00623743
0.00623733
0.00623724
0.00623714
0.00623705
0.00623697
0.00623691
0.0062369
0.00623693
0.00574103
0.005741
0.00574101
0.00574107
0.00574114
0.00574123
0.00574131
0.0057414
0.00574148
0.00574155
0.00574161
0.00574167
0.00574171
0.00574174
0.00574175
0.00574175
0.00574174
0.00574171
0.00574166
0.00574161
0.00574154
0.00574147
0.00574139
0.00574131
0.00574122
0.00574114
0.00574106
0.005741
0.00574099
0.00574102
0.00531812
0.0053181
0.00531812
0.00531817
0.00531824
0.00531832
0.0053184
0.00531847
0.00531854
0.0053186
0.00531865
0.0053187
0.00531873
0.00531876
0.00531877
0.00531877
0.00531876
0.00531873
0.0053187
0.00531865
0.0053186
0.00531853
0.00531847
0.00531839
0.00531832
0.00531824
0.00531816
0.00531811
0.00531809
0.00531811
0.00495318
0.00495316
0.00495319
0.00495325
0.00495332
0.00495339
0.00495346
0.00495353
0.00495359
0.00495364
0.00495368
0.00495372
0.00495375
0.00495377
0.00495378
0.00495378
0.00495377
0.00495375
0.00495372
0.00495368
0.00495363
0.00495358
0.00495352
0.00495346
0.00495339
0.00495331
0.00495324
0.00495318
0.00495316
0.00495316
0.00463504
0.00463504
0.00463507
0.00463513
0.0046352
0.00463528
0.00463534
0.0046354
0.00463545
0.00463549
0.00463553
0.00463556
0.00463558
0.0046356
0.00463561
0.00463561
0.0046356
0.00463558
0.00463556
0.00463553
0.00463549
0.00463544
0.00463539
0.00463533
0.00463527
0.0046352
0.00463512
0.00463506
0.00463503
0.00463503
0.00435523
0.00435524
0.00435528
0.00435535
0.00435543
0.0043555
0.00435556
0.00435561
0.00435565
0.00435569
0.00435572
0.00435575
0.00435577
0.00435578
0.00435579
0.00435579
0.00435578
0.00435576
0.00435574
0.00435572
0.00435569
0.00435565
0.0043556
0.00435555
0.00435549
0.00435542
0.00435534
0.00435528
0.00435523
0.00435522
0.00410723
0.00410724
0.00410729
0.00410737
0.00410744
0.00410751
0.00410757
0.00410762
0.00410766
0.00410769
0.00410771
0.00410773
0.00410775
0.00410776
0.00410777
0.00410777
0.00410776
0.00410775
0.00410773
0.00410771
0.00410769
0.00410765
0.00410761
0.00410757
0.00410751
0.00410744
0.00410736
0.00410728
0.00410723
0.00410721
0.00388588
0.00388591
0.00388597
0.00388604
0.00388612
0.00388619
0.00388625
0.00388629
0.00388633
0.00388636
0.00388638
0.0038864
0.00388641
0.00388642
0.00388642
0.00388642
0.00388642
0.00388641
0.00388639
0.00388638
0.00388635
0.00388633
0.00388629
0.00388625
0.00388619
0.00388612
0.00388604
0.00388596
0.0038859
0.00388587
0.00368712
0.00368715
0.00368722
0.00368731
0.00368739
0.00368746
0.00368751
0.00368755
0.00368759
0.00368761
0.00368763
0.00368764
0.00368765
0.00368766
0.00368766
0.00368766
0.00368766
0.00368765
0.00368764
0.00368763
0.00368761
0.00368758
0.00368755
0.00368751
0.00368745
0.00368738
0.0036873
0.00368721
0.00368714
0.0036871
0.00350765
0.0035077
0.00350778
0.00350786
0.00350795
0.00350802
0.00350807
0.00350811
0.00350814
0.00350817
0.00350818
0.00350819
0.0035082
0.00350821
0.00350821
0.00350821
0.00350821
0.0035082
0.00350819
0.00350818
0.00350816
0.00350814
0.00350811
0.00350807
0.00350801
0.00350794
0.00350786
0.00350777
0.00350769
0.00350764
0.00334481
0.00334487
0.00334496
0.00334505
0.00334514
0.00334521
0.00334527
0.00334531
0.00334533
0.00334535
0.00334537
0.00334538
0.00334538
0.00334539
0.00334539
0.00334539
0.00334539
0.00334538
0.00334537
0.00334536
0.00334535
0.00334533
0.0033453
0.00334526
0.00334521
0.00334513
0.00334505
0.00334495
0.00334486
0.00334481
0.00319643
0.0031965
0.00319659
0.00319669
0.00319678
0.00319685
0.00319691
0.00319694
0.00319697
0.00319699
0.003197
0.00319701
0.00319701
0.00319702
0.00319702
0.00319702
0.00319702
0.00319701
0.00319701
0.003197
0.00319699
0.00319697
0.00319694
0.0031969
0.00319685
0.00319677
0.00319668
0.00319658
0.00319649
0.00319642
0.00306073
0.00306081
0.00306091
0.00306101
0.0030611
0.00306117
0.00306123
0.00306126
0.00306129
0.0030613
0.00306131
0.00306132
0.00306133
0.00306133
0.00306133
0.00306133
0.00306133
0.00306133
0.00306132
0.00306131
0.0030613
0.00306128
0.00306126
0.00306122
0.00306117
0.0030611
0.003061
0.0030609
0.0030608
0.00306072
0.00293634
0.00293643
0.00293653
0.00293663
0.00293672
0.00293679
0.00293684
0.00293688
0.0029369
0.00293692
0.00293692
0.00293693
0.00293693
0.00293694
0.00293694
0.00293694
0.00293694
0.00293693
0.00293693
0.00293692
0.00293691
0.0029369
0.00293687
0.00293684
0.00293679
0.00293672
0.00293662
0.00293652
0.00293642
0.00293633
0.00282234
0.00282244
0.00282254
0.00282265
0.00282273
0.0028228
0.00282284
0.00282288
0.0028229
0.00282291
0.00282292
0.00282292
0.00282293
0.00282293
0.00282293
0.00282293
0.00282293
0.00282292
0.00282292
0.00282292
0.00282291
0.00282289
0.00282287
0.00282284
0.00282279
0.00282272
0.00282264
0.00282253
0.00282243
0.00282234
0.00271863
0.00271872
0.00271883
0.00271892
0.002719
0.00271906
0.0027191
0.00271912
0.00271914
0.00271915
0.00271916
0.00271916
0.00271916
0.00271917
0.00271917
0.00271917
0.00271916
0.00271916
0.00271916
0.00271916
0.00271915
0.00271914
0.00271912
0.00271909
0.00271905
0.00271899
0.00271891
0.00271882
0.00271871
0.00271862
0.00262667
0.00262676
0.00262685
0.00262693
0.00262699
0.00262704
0.00262707
0.00262709
0.00262711
0.00262711
0.00262712
0.00262712
0.00262712
0.00262712
0.00262713
0.00262713
0.00262712
0.00262712
0.00262712
0.00262712
0.00262711
0.00262711
0.00262709
0.00262707
0.00262704
0.00262699
0.00262692
0.00262684
0.00262675
0.00262667
0.00255145
0.00255152
0.00255159
0.00255165
0.00255169
0.00255172
0.00255174
0.00255176
0.00255176
0.00255177
0.00255177
0.00255177
0.00255177
0.00255178
0.00255178
0.00255178
0.00255178
0.00255177
0.00255177
0.00255177
0.00255177
0.00255176
0.00255175
0.00255174
0.00255172
0.00255169
0.00255164
0.00255158
0.00255152
0.00255144
0.00250461
0.00250466
0.00250471
0.00250474
0.00250477
0.00250478
0.00250479
0.0025048
0.00250481
0.00250481
0.00250481
0.00250481
0.00250481
0.00250481
0.00250481
0.00250481
0.00250481
0.00250481
0.00250481
0.00250481
0.00250481
0.00250481
0.0025048
0.00250479
0.00250478
0.00250476
0.00250474
0.0025047
0.00250466
0.00250461
0.0726625
0.0726629
0.0726628
0.0726622
0.0726612
0.0726599
0.0726583
0.0726566
0.0726547
0.0726528
0.072651
0.0726494
0.0726481
0.0726473
0.0726469
0.072647
0.0726476
0.0726485
0.0726496
0.072651
0.0726525
0.0726543
0.0726562
0.0726581
0.0726598
0.0726614
0.0726626
0.0726632
0.0726632
0.0726627
0.0449725
0.0449716