/*--------------------------------*- C++ -*----------------------------------*\
| =========                 |                                                 |
| \\      /  F ield         | OpenFOAM: The Open Source CFD Toolbox           |
|  \\    /   O peration     | Version:  2506                                  |
|   \\  /    A nd           | Website:  www.openfoam.com                      |
|    \\/     M anipulation  |                                                 |
\*---------------------------------------------------------------------------*/
FoamFile
{
    version     2.0;
    format      ascii;
    arch        "LSB;label=32;scalar=64";
    class       volScalarField;
    location    "40";
    object      nut;
}
// * * * * * * * * * * * * * * * * * * * * * * * * * * * * * * * * * * * * * //

dimensions      [0 2 -1 0 0 0 0];

internalField   nonuniform List<scalar> 
144676
(
0.0589883
0.0589886
0.0589886
0.0589886
0.0589886
0.0589886
0.0589885
0.0589884
0.0589884
0.0589884
0.0589884
0.0589884
0.0589885
0.0589885
0.0589886
0.0589886
0.0589886
0.0589885
0.0589885
0.0589885
0.0589885
0.0589884
0.0589884
0.0589884
0.0589884
0.0589884
0.0589885
0.0589885
0.0589885
0.0589883
0.195943
0.195944
0.195944
0.195944
0.195944
0.195944
0.195944
0.195944
0.195944
0.195944
0.195945
0.195945
0.195945
0.195945
0.195945
0.195945
0.195945
0.195945
0.195945
0.195944
0.195944
0.195944
0.195944
0.195944
0.195944
0.195944
0.195944
0.195944
0.195944
0.195943
0.323256
0.323256
0.323256
0.323256
0.323256
0.323256
0.323256
0.323256
0.323256
0.323257
0.323257
0.323257
0.323257
0.323257
0.323257
0.323257
0.323257
0.323257
0.323257
0.323257
0.323257
0.323256
0.323256
0.323256
0.323256
0.323256
0.323256
0.323256
0.323256
0.323256
0.450244
0.450243
0.450243
0.450243
0.450244
0.450244
0.450244
0.450244
0.450245
0.450245
0.450245
0.450245
0.450245
0.450246
0.450246
0.450246
0.450246
0.450245
0.450245
0.450245
0.450245
0.450245
0.450244
0.450244
0.450244
0.450243
0.450243
0.450243
0.450243
0.450244
0.577067
0.577067
0.577067
0.577067
0.577068
0.577068
0.577069
0.577069
0.577069
0.57707
0.57707
0.577071
0.577071
0.577071
0.577071
0.577071
0.577071
0.577071
0.57707
0.57707
0.57707
0.577069
0.577069
0.577069
0.577068
0.577068
0.577067
0.577067
0.577067
0.577067
0.70386
0.70386
0.70386
0.70386
0.70386
0.703861
0.703862
0.703862
0.703863
0.703863
0.703864
0.703864
0.703865
0.703865
0.703865
0.703865
0.703865
0.703865
0.703864
0.703864
0.703863
0.703863
0.703862
0.703862
0.703861
0.70386
0.70386
0.70386
0.70386
0.70386
0.830647
0.830647
0.830647
0.830648
0.830648
0.830649
0.83065
0.83065
0.830651
0.830652
0.830653
0.830653
0.830654
0.830654
0.830654
0.830654
0.830654
0.830654
0.830653
0.830653
0.830652
0.830651
0.83065
0.83065
0.830649
0.830648
0.830648
0.830647
0.830647
0.830647
0.957436
0.957436
0.957436
0.957437
0.957437
0.957438
0.957439
0.95744
0.957441
0.957442
0.957442
0.957443
0.957444
0.957444
0.957444
0.957444
0.957444
0.957444
0.957443
0.957442
0.957442
0.957441
0.95744
0.957439
0.957438
0.957437
0.957437
0.957436
0.957436
0.957436
1.08423
1.08423
1.08423
1.08423
1.08423
1.08423
1.08423
1.08423
1.08423
1.08423
1.08423
1.08423
1.08424
1.08424
1.08424
1.08424
1.08424
1.08424
1.08423
1.08423
1.08423
1.08423
1.08423
1.08423
1.08423
1.08423
1.08423
1.08423
1.08423
1.08423
1.21102
1.21102
1.21102
1.21102
1.21102
1.21102
1.21102
1.21102
1.21102
1.21103
1.21103
1.21103
1.21103
1.21103
1.21103
1.21103
1.21103
1.21103
1.21103
1.21103
1.21103
1.21102
1.21102
1.21102
1.21102
1.21102
1.21102
1.21102
1.21102
1.21102
1.33781
1.33781
1.33781
1.33781
1.33781
1.33781
1.33782
1.33782
1.33782
1.33782
1.33782
1.33782
1.33782
1.33782
1.33782
1.33782
1.33782
1.33782
1.33782
1.33782
1.33782
1.33782
1.33782
1.33782
1.33781
1.33781
1.33781
1.33781
1.33781
1.33781
1.4646
1.4646
1.4646
1.4646
1.4646
1.46461
1.46461
1.46461
1.46461
1.46461
1.46461
1.46461
1.46461
1.46461
1.46462
1.46462
1.46461
1.46461
1.46461
1.46461
1.46461
1.46461
1.46461
1.46461
1.46461
1.4646
1.4646
1.4646
1.4646
1.4646
1.59139
1.59139
1.59139
1.59139
1.5914
1.5914
1.5914
1.5914
1.5914
1.5914
1.5914
1.5914
1.59141
1.59141
1.59141
1.59141
1.59141
1.59141
1.5914
1.5914
1.5914
1.5914
1.5914
1.5914
1.5914
1.5914
1.59139
1.59139
1.59139
1.59139
1.71818
1.71818
1.71818
1.71818
1.71818
1.71819
1.71819
1.71819
1.71819
1.71819
1.71819
1.71819
1.71819
1.7182
1.7182
1.7182
1.7182
1.71819
1.71819
1.71819
1.71819
1.71819
1.71819
1.71819
1.71819
1.71818
1.71818
1.71818
1.71818
1.71818
1.84497
1.84497
1.84497
1.84497
1.84497
1.84497
1.84497
1.84498
1.84498
1.84498
1.84498
1.84498
1.84498
1.84498
1.84498
1.84498
1.84498
1.84498
1.84498
1.84498
1.84498
1.84498
1.84498
1.84497
1.84497
1.84497
1.84497
1.84497
1.84497
1.84497
1.97175
1.97175
1.97175
1.97175
1.97175
1.97175
1.97176
1.97176
1.97176
1.97176
1.97176
1.97176
1.97176
1.97176
1.97176
1.97176
1.97176
1.97176
1.97176
1.97176
1.97176
1.97176
1.97176
1.97176
1.97175
1.97175
1.97175
1.97175
1.97175
1.97175
2.09853
2.09853
2.09853
2.09853
2.09853
2.09853
2.09853
2.09854
2.09854
2.09854
2.09854
2.09854
2.09854
2.09854
2.09854
2.09854
2.09854
2.09854
2.09854
2.09854
2.09854
2.09854
2.09854
2.09853
2.09853
2.09853
2.09853
2.09853
2.09853
2.09853
2.2253
2.2253
2.2253
2.2253
2.2253
2.2253
2.22531
2.22531
2.22531
2.22531
2.22531
2.22531
2.22531
2.22531
2.22531
2.22531
2.22531
2.22531
2.22531
2.22531
2.22531
2.22531
2.22531
2.22531
2.2253
2.2253
2.2253
2.2253
2.2253
2.2253
2.35206
2.35206
2.35206
2.35206
2.35207
2.35207
2.35207
2.35207
2.35207
2.35207
2.35208
2.35208
2.35208
2.35208
2.35208
2.35208
2.35208
2.35208
2.35208
2.35208
2.35207
2.35207
2.35207
2.35207
2.35207
2.35207
2.35206
2.35206
2.35206
2.35206
2.47882
2.47882
2.47882
2.47882
2.47882
2.47882
2.47883
2.47883
2.47883
2.47883
2.47883
2.47883
2.47883
2.47883
2.47883
2.47883
2.47883
2.47883
2.47883
2.47883
2.47883
2.47883
2.47883
2.47883
2.47882
2.47882
2.47882
2.47882
2.47882
2.47882
2.60557
2.60557
2.60556
2.60557
2.60557
2.60557
2.60557
2.60557
2.60558
2.60558
2.60558
2.60558
2.60558
2.60558
2.60558
2.60558
2.60558
2.60558
2.60558
2.60558
2.60558
2.60558
2.60557
2.60557
2.60557
2.60557
2.60557
2.60556
2.60556
2.60557
2.7323
2.7323
2.7323
2.7323
2.7323
2.7323
2.7323
2.73231
2.73231
2.73231
2.73231
2.73231
2.73231
2.73231
2.73231
2.73231
2.73231
2.73231
2.73231
2.73231
2.73231
2.73231
2.73231
2.7323
2.7323
2.7323
2.7323
2.7323
2.7323
2.7323
2.85902
2.85901
2.85901
2.85901
2.85901
2.85901
2.85901
2.85902
2.85902
2.85902
2.85902
2.85902
2.85902
2.85902
2.85902
2.85902
2.85902
2.85902
2.85902
2.85902
2.85902
2.85902
2.85901
2.85901
2.85901
2.85901
2.85901
2.85901
2.85901
2.85902
2.9857
2.98569
2.98568
2.98568
2.98568
2.98569
2.98569
2.98569
2.98569
2.98569
2.98569
2.98569
2.98569
2.98569
2.98569
2.98569
2.98569
2.98569
2.98569
2.98569
2.98569
2.98569
2.98569
2.98569
2.98569
2.98568
2.98568
2.98568
2.98569
2.98569
3.1123
3.11229
3.11228
3.11228
3.11228
3.11228
3.11228
3.11228
3.11228
3.11228
3.11228
3.11228
3.11229
3.11229
3.11229
3.11229
3.11229
3.11229
3.11228
3.11228
3.11228
3.11228
3.11228
3.11228
3.11228
3.11228
3.11228
3.11228
3.11229
3.1123
3.23873
3.23871
3.23871
3.2387
3.2387
3.2387
3.2387
3.2387
3.2387
3.2387
3.2387
3.2387
3.2387
3.2387
3.2387
3.2387
3.2387
3.2387
3.2387
3.2387
3.2387
3.2387
3.2387
3.2387
3.2387
3.2387
3.2387
3.23871
3.23871
3.23872
3.36468
3.36466
3.36465
3.36465
3.36465
3.36464
3.36464
3.36464
3.36464
3.36464
3.36464
3.36464
3.36464
3.36464
3.36464
3.36464
3.36464
3.36464
3.36464
3.36464
3.36464
3.36464
3.36464
3.36464
3.36464
3.36465
3.36465
3.36465
3.36466
3.36468
3.48922
3.4892
3.48919
3.48918
3.48918
3.48917
3.48917
3.48917
3.48917
3.48917
3.48917
3.48917
3.48917
3.48917
3.48917
3.48917
3.48917
3.48917
3.48917
3.48917
3.48917
3.48917
3.48917
3.48917
3.48917
3.48918
3.48918
3.48919
3.4892
3.48921
3.60885
3.60883
3.60882
3.60881
3.6088
3.6088
3.6088
3.60879
3.60879
3.60879
3.60879
3.60879
3.60879
3.60879
3.60879
3.60879
3.60879
3.60879
3.60879
3.60879
3.60879
3.60879
3.60879
3.6088
3.6088
3.6088
3.60881
3.60882
3.60883
3.60885
3.7082
3.70818
3.70817
3.70815
3.70815
3.70814
3.70814
3.70813
3.70813
3.70813
3.70813
3.70813
3.70813
3.70813
3.70813
3.70813
3.70813
3.70813
3.70813
3.70813
3.70813
3.70813
3.70813
3.70814
3.70814
3.70815
3.70816
3.70817
3.70818
3.7082
0.0554226
0.055423
0.055423
0.055423
0.0554229
0.0554228
0.0554226
0.0554225
0.0554224
0.0554223
0.0554224
0.0554224
0.0554225
0.0554226
0.0554226
0.0554226
0.0554225
0.0554224
0.0554224
0.0554224
0.0554224
0.0554224
0.0554225
0.0554225
0.0554226
0.0554227
0.0554228
0.0554229
0.055423
0.0554227
0.196668
0.19667
0.196669
0.196669
0.196669
0.19667
0.19667
0.19667
0.19667
0.19667
0.196671
0.196671
0.196671
0.196671
0.196671
0.196671
0.196671
0.196671
0.196671
0.196671
0.19667
0.19667
0.19667
0.19667
0.19667
0.196669
0.196669
0.196669
0.19667
0.196668
0.323716
0.323715
0.323715
0.323715
0.323715
0.323715
0.323716
0.323716
0.323716
0.323716
0.323716
0.323717
0.323717
0.323717
0.323717
0.323717
0.323717
0.323717
0.323717
0.323716
0.323716
0.323716
0.323716
0.323716
0.323715
0.323715
0.323715
0.323715
0.323715
0.323716
0.450756
0.450756
0.450755
0.450755
0.450756
0.450756
0.450756
0.450757
0.450757
0.450758
0.450758
0.450758
0.450759
0.450759
0.450759
0.450759
0.450759
0.450759
0.450758
0.450758
0.450758
0.450757
0.450757
0.450756
0.450756
0.450756
0.450755
0.450755
0.450755
0.450756
0.577567
0.577566
0.577566
0.577567
0.577567
0.577568
0.577568
0.577569
0.57757
0.577571
0.577571
0.577572
0.577572
0.577573
0.577573
0.577573
0.577573
0.577572
0.577572
0.577571
0.577571
0.57757
0.577569
0.577568
0.577568
0.577567
0.577567
0.577566
0.577566
0.577566
0.704316
0.704316
0.704316
0.704317
0.704318
0.704318
0.70432
0.704321
0.704322
0.704323
0.704324
0.704324
0.704325
0.704326
0.704326
0.704326
0.704326
0.704325
0.704324
0.704324
0.704323
0.704322
0.704321
0.70432
0.704318
0.704318
0.704317
0.704316
0.704316
0.704316
0.83106
0.83106
0.83106
0.831061
0.831062
0.831064
0.831065
0.831067
0.831068
0.831069
0.831071
0.831072
0.831073
0.831073
0.831073
0.831073
0.831073
0.831072
0.831072
0.831071
0.831069
0.831068
0.831067
0.831065
0.831064
0.831062
0.831061
0.83106
0.83106
0.83106
0.957815
0.957815
0.957815
0.957816
0.957818
0.957819
0.957821
0.957823
0.957825
0.957827
0.957828
0.95783
0.957831
0.957831
0.957832
0.957832
0.957831
0.957831
0.957829
0.957828
0.957827
0.957825
0.957823
0.957821
0.957819
0.957818
0.957816
0.957815
0.957815
0.957814
1.08458
1.08458
1.08458
1.08458
1.08458
1.08459
1.08459
1.08459
1.08459
1.0846
1.0846
1.0846
1.0846
1.0846
1.0846
1.0846
1.0846
1.0846
1.0846
1.0846
1.0846
1.08459
1.08459
1.08459
1.08459
1.08458
1.08458
1.08458
1.08458
1.08458
1.21135
1.21135
1.21136
1.21136
1.21136
1.21136
1.21137
1.21137
1.21137
1.21137
1.21137
1.21138
1.21138
1.21138
1.21138
1.21138
1.21138
1.21138
1.21138
1.21137
1.21137
1.21137
1.21137
1.21137
1.21136
1.21136
1.21136
1.21136
1.21135
1.21135
1.33813
1.33813
1.33814
1.33814
1.33814
1.33814
1.33815
1.33815
1.33815
1.33816
1.33816
1.33816
1.33816
1.33816
1.33816
1.33816
1.33816
1.33816
1.33816
1.33816
1.33816
1.33815
1.33815
1.33815
1.33814
1.33814
1.33814
1.33814
1.33813
1.33813
1.46492
1.46492
1.46492
1.46492
1.46492
1.46493
1.46493
1.46493
1.46494
1.46494
1.46494
1.46494
1.46495
1.46495
1.46495
1.46495
1.46495
1.46495
1.46494
1.46494
1.46494
1.46494
1.46493
1.46493
1.46493
1.46492
1.46492
1.46492
1.46492
1.46491
1.5917
1.5917
1.5917
1.5917
1.5917
1.59171
1.59171
1.59172
1.59172
1.59172
1.59173
1.59173
1.59173
1.59173
1.59173
1.59173
1.59173
1.59173
1.59173
1.59173
1.59172
1.59172
1.59172
1.59171
1.59171
1.5917
1.5917
1.5917
1.59169
1.59169
1.71847
1.71847
1.71847
1.71848
1.71848
1.71849
1.71849
1.7185
1.7185
1.7185
1.7185
1.71851
1.71851
1.71851
1.71851
1.71851
1.71851
1.71851
1.71851
1.7185
1.7185
1.7185
1.71849
1.71849
1.71849
1.71848
1.71848
1.71847
1.71847
1.71847
1.84524
1.84524
1.84524
1.84525
1.84525
1.84526
1.84526
1.84527
1.84527
1.84527
1.84528
1.84528
1.84528
1.84528
1.84528
1.84528
1.84528
1.84528
1.84528
1.84528
1.84527
1.84527
1.84527
1.84526
1.84526
1.84525
1.84524
1.84524
1.84524
1.84524
1.972
1.972
1.972
1.972
1.97201
1.97202
1.97202
1.97203
1.97203
1.97203
1.97204
1.97204
1.97204
1.97204
1.97204
1.97204
1.97204
1.97204
1.97204
1.97204
1.97203
1.97203
1.97203
1.97202
1.97202
1.97201
1.972
1.972
1.972
1.972
2.09874
2.09874
2.09874
2.09875
2.09875
2.09876
2.09877
2.09877
2.09878
2.09878
2.09878
2.09878
2.09878
2.09879
2.09879
2.09879
2.09879
2.09878
2.09878
2.09878
2.09878
2.09878
2.09877
2.09877
2.09876
2.09875
2.09875
2.09874
2.09874
2.09874
2.22547
2.22547
2.22547
2.22547
2.22548
2.22549
2.22549
2.2255
2.2255
2.22551
2.22551
2.22551
2.22551
2.22551
2.22551
2.22551
2.22551
2.22551
2.22551
2.22551
2.22551
2.2255
2.2255
2.22549
2.22549
2.22548
2.22547
2.22547
2.22547
2.22547
2.35218
2.35218
2.35218
2.35218
2.35219
2.35219
2.3522
2.35221
2.35221
2.35221
2.35221
2.35222
2.35222
2.35222
2.35222
2.35222
2.35222
2.35222
2.35222
2.35221
2.35221
2.35221
2.35221
2.3522
2.35219
2.35219
2.35218
2.35217
2.35217
2.35218
2.47887
2.47886
2.47886
2.47886
2.47887
2.47887
2.47888
2.47889
2.47889
2.47889
2.47889
2.4789
2.4789
2.4789
2.4789
2.4789
2.4789
2.4789
2.4789
2.47889
2.47889
2.47889
2.47889
2.47888
2.47887
2.47887
2.47886
2.47885
2.47886
2.47887
2.60553
2.60551
2.60551
2.60551
2.60551
2.60552
2.60553
2.60553
2.60554
2.60554
2.60554
2.60554
2.60554
2.60554
2.60554
2.60554
2.60554
2.60554
2.60554
2.60554
2.60554
2.60554
2.60553
2.60553
2.60552
2.60551
2.60551
2.6055
2.60551
2.60552
2.73214
2.73212
2.73211
2.73211
2.73212
2.73212
2.73213
2.73213
2.73214
2.73214
2.73214
2.73214
2.73214
2.73214
2.73214
2.73214
2.73214
2.73214
2.73214
2.73214
2.73214
2.73214
2.73213
2.73213
2.73212
2.73212
2.73211
2.73211
2.73212
2.73214
2.85869
2.85866
2.85865
2.85865
2.85865
2.85865
2.85866
2.85866
2.85866
2.85867
2.85867
2.85867
2.85867
2.85867
2.85867
2.85867
2.85867
2.85867
2.85867
2.85867
2.85866
2.85866
2.85866
2.85866
2.85865
2.85865
2.85865
2.85865
2.85866
2.85868
2.98511
2.98508
2.98506
2.98505
2.98505
2.98505
2.98506
2.98506
2.98506
2.98506
2.98506
2.98506
2.98506
2.98506
2.98506
2.98506
2.98506
2.98506
2.98506
2.98506
2.98506
2.98506
2.98506
2.98506
2.98505
2.98505
2.98505
2.98506
2.98507
2.98511
3.11127
3.11122
3.1112
3.11119
3.11118
3.11118
3.11118
3.11118
3.11118
3.11118
3.11118
3.11118
3.11118
3.11118
3.11118
3.11118
3.11118
3.11118
3.11118
3.11118
3.11118
3.11118
3.11118
3.11118
3.11118
3.11118
3.11119
3.1112
3.11122
3.11126
3.23679
3.23674
3.23671
3.23669
3.23668
3.23667
3.23667
3.23667
3.23667
3.23667
3.23667
3.23667
3.23667
3.23667
3.23667
3.23667
3.23667
3.23667
3.23667
3.23667
3.23667
3.23667
3.23667
3.23667
3.23667
3.23668
3.23669
3.23671
3.23674
3.23678
3.36074
3.36068
3.36064
3.36062
3.3606
3.36059
3.36058
3.36058
3.36058
3.36058
3.36057
3.36057
3.36057
3.36057
3.36057
3.36057
3.36057
3.36057
3.36057
3.36057
3.36058
3.36058
3.36058
3.36058
3.36059
3.3606
3.36062
3.36064
3.36068
3.36073
3.48054
3.48048
3.48043
3.4804
3.48038
3.48036
3.48035
3.48035
3.48034
3.48034
3.48034
3.48034
3.48034
3.48034
3.48034
3.48034
3.48034
3.48034
3.48034
3.48034
3.48034
3.48034
3.48035
3.48035
3.48036
3.48038
3.4804
3.48044
3.48048
3.48054
3.58899
3.58892
3.58887
3.58883
3.5888
3.58878
3.58877
3.58876
3.58875
3.58875
3.58875
3.58875
3.58874
3.58874
3.58874
3.58874
3.58874
3.58874
3.58875
3.58875
3.58875
3.58875
3.58876
3.58877
3.58878
3.5888
3.58883
3.58887
3.58892
3.58898
3.66609
3.66602
3.66596
3.66592
3.66589
3.66587
3.66585
3.66584
3.66584
3.66583
3.66583
3.66583
3.66583
3.66583
3.66583
3.66583
3.66583
3.66583
3.66583
3.66583
3.66583
3.66584
3.66584
3.66585
3.66587
3.66589
3.66593
3.66597
3.66602
3.66609
0.0526355
0.0526358
0.0526358
0.0526357
0.0526356
0.0526353
0.0526351
0.0526348
0.0526346
0.0526344
0.0526343
0.0526343
0.0526343
0.0526343
0.0526342
0.0526342
0.0526342
0.0526342
0.0526342
0.0526343
0.0526345
0.0526346
0.0526348
0.052635
0.0526352
0.0526354
0.0526356
0.0526358
0.0526359
0.0526357
0.198107
0.198108
0.198108
0.198108
0.198108
0.198108
0.198109
0.198109
0.19811
0.19811
0.198111
0.198111
0.198111
0.198112
0.198112
0.198112
0.198112
0.198111
0.198111
0.198111
0.19811
0.19811
0.198109
0.198109
0.198108
0.198108
0.198108
0.198108
0.198108
0.198107
0.324586
0.324585
0.324585
0.324585
0.324585
0.324585
0.324586
0.324586
0.324586
0.324587
0.324587
0.324587
0.324588
0.324588
0.324588
0.324588
0.324588
0.324588
0.324587
0.324587
0.324587
0.324586
0.324586
0.324586
0.324585
0.324585
0.324585
0.324585
0.324585
0.324586
0.451508
0.451508
0.451508
0.451508
0.451509
0.451509
0.45151
0.45151
0.451511
0.451512
0.451512
0.451512
0.451513
0.451513
0.451513
0.451513
0.451513
0.451513
0.451512
0.451512
0.451511
0.451511
0.45151
0.45151
0.451509
0.451509
0.451508
0.451508
0.451508
0.451508
0.578273
0.578273
0.578273
0.578274
0.578275
0.578275
0.578276
0.578278
0.578279
0.57828
0.57828
0.578281
0.578282
0.578282
0.578282
0.578282
0.578282
0.578282
0.578281
0.57828
0.578279
0.578278
0.578277
0.578276
0.578275
0.578275
0.578274
0.578273
0.578273
0.578273
0.704959
0.704959
0.704959
0.70496
0.704961
0.704963
0.704964
0.704966
0.704968
0.704969
0.70497
0.704972
0.704973
0.704973
0.704974
0.704974
0.704973
0.704973
0.704972
0.70497
0.704969
0.704967
0.704966
0.704964
0.704963
0.704961
0.70496
0.704959
0.704959
0.704958
0.831635
0.831636
0.831637
0.831638
0.83164
0.831642
0.831644
0.831647
0.831649
0.831651
0.831653
0.831654
0.831656
0.831656
0.831657
0.831657
0.831656
0.831655
0.831654
0.831653
0.831651
0.831649
0.831646
0.831644
0.831642
0.83164
0.831638
0.831637
0.831636
0.831635
0.958332
0.958333
0.958334
0.958336
0.958339
0.958342
0.958345
0.958348
0.958351
0.958353
0.958356
0.958358
0.958359
0.95836
0.958361
0.958361
0.95836
0.958359
0.958358
0.958356
0.958353
0.958351
0.958348
0.958345
0.958342
0.958339
0.958336
0.958334
0.958333
0.958332
1.08505
1.08505
1.08505
1.08506
1.08506
1.08507
1.08507
1.08507
1.08508
1.08508
1.08508
1.08508
1.08509
1.08509
1.08509
1.08509
1.08509
1.08509
1.08508
1.08508
1.08508
1.08508
1.08507
1.08507
1.08507
1.08506
1.08506
1.08505
1.08505
1.08505
1.21179
1.21179
1.21179
1.2118
1.2118
1.21181
1.21181
1.21182
1.21182
1.21182
1.21183
1.21183
1.21183
1.21183
1.21183
1.21183
1.21183
1.21183
1.21183
1.21183
1.21182
1.21182
1.21182
1.21181
1.21181
1.2118
1.2118
1.21179
1.21179
1.21179
1.33854
1.33854
1.33854
1.33855
1.33855
1.33856
1.33857
1.33857
1.33858
1.33858
1.33858
1.33859
1.33859
1.33859
1.33859
1.33859
1.33859
1.33859
1.33859
1.33858
1.33858
1.33858
1.33857
1.33857
1.33856
1.33855
1.33855
1.33854
1.33854
1.33854
1.46529
1.46529
1.4653
1.4653
1.46531
1.46532
1.46532
1.46533
1.46534
1.46534
1.46534
1.46535
1.46535
1.46535
1.46535
1.46535
1.46535
1.46535
1.46535
1.46534
1.46534
1.46534
1.46533
1.46532
1.46532
1.46531
1.4653
1.4653
1.46529
1.46529
1.59204
1.59204
1.59205
1.59206
1.59207
1.59207
1.59208
1.59209
1.59209
1.5921
1.5921
1.59211
1.59211
1.59211
1.59211
1.59211
1.59211
1.59211
1.59211
1.5921
1.5921
1.59209
1.59209
1.59208
1.59207
1.59206
1.59206
1.59205
1.59204
1.59204
1.71879
1.71879
1.71879
1.7188
1.71881
1.71882
1.71883
1.71884
1.71884
1.71885
1.71885
1.71886
1.71886
1.71886
1.71886
1.71886
1.71886
1.71886
1.71886
1.71885
1.71885
1.71884
1.71884
1.71883
1.71882
1.71881
1.7188
1.71879
1.71878
1.71878
1.84552
1.84551
1.84552
1.84553
1.84554
1.84555
1.84556
1.84557
1.84558
1.84558
1.84559
1.84559
1.84559
1.84559
1.84559
1.84559
1.84559
1.84559
1.84559
1.84558
1.84558
1.84558
1.84557
1.84556
1.84555
1.84554
1.84553
1.84552
1.84551
1.84551
1.97222
1.97222
1.97222
1.97223
1.97225
1.97226
1.97227
1.97228
1.97229
1.97229
1.9723
1.9723
1.9723
1.9723
1.9723
1.9723
1.9723
1.9723
1.9723
1.9723
1.97229
1.97229
1.97228
1.97227
1.97226
1.97225
1.97223
1.97222
1.97222
1.97222
2.09891
2.0989
2.0989
2.09891
2.09892
2.09894
2.09895
2.09896
2.09897
2.09897
2.09898
2.09898
2.09898
2.09898
2.09898
2.09898
2.09898
2.09898
2.09898
2.09898
2.09897
2.09897
2.09896
2.09895
2.09894
2.09892
2.09891
2.0989
2.09889
2.0989
2.22556
2.22554
2.22554
2.22555
2.22557
2.22558
2.22559
2.2256
2.22561
2.22561
2.22562
2.22562
2.22562
2.22562
2.22562
2.22562
2.22562
2.22562
2.22562
2.22562
2.22561
2.22561
2.2256
2.22559
2.22558
2.22556
2.22555
2.22554
2.22554
2.22555
2.35217
2.35214
2.35214
2.35215
2.35216
2.35218
2.35219
2.3522
2.35221
2.35221
2.35222
2.35222
2.35222
2.35222
2.35222
2.35222
2.35222
2.35222
2.35222
2.35222
2.35221
2.35221
2.3522
2.35219
2.35218
2.35216
2.35215
2.35214
2.35214
2.35216
2.47873
2.4787
2.47869
2.4787
2.47871
2.47872
2.47873
2.47874
2.47875
2.47875
2.47876
2.47876
2.47876
2.47876
2.47876
2.47876
2.47876
2.47876
2.47876
2.47876
2.47875
2.47875
2.47874
2.47873
2.47872
2.47871
2.4787
2.47869
2.4787
2.47872
2.60523
2.60519
2.60518
2.60518
2.60519
2.6052
2.60521
2.60522
2.60522
2.60523
2.60523
2.60523
2.60523
2.60523
2.60523
2.60523
2.60523
2.60523
2.60523
2.60523
2.60523
2.60522
2.60522
2.60521
2.6052
2.60519
2.60518
2.60517
2.60519
2.60522
2.73165
2.7316
2.73157
2.73157
2.73157
2.73158
2.73159
2.73159
2.7316
2.7316
2.7316
2.73161
2.73161
2.73161
2.73161
2.73161
2.73161
2.73161
2.73161
2.7316
2.7316
2.7316
2.73159
2.73159
2.73158
2.73157
2.73156
2.73157
2.73159
2.73164
2.85793
2.85786
2.85782
2.8578
2.8578
2.85781
2.85781
2.85782
2.85782
2.85782
2.85782
2.85783
2.85783
2.85783
2.85783
2.85783
2.85783
2.85783
2.85783
2.85782
2.85782
2.85782
2.85782
2.85781
2.85781
2.8578
2.8578
2.85782
2.85785
2.85791
2.98393
2.98384
2.98379
2.98377
2.98376
2.98375
2.98376
2.98376
2.98376
2.98376
2.98376
2.98376
2.98376
2.98376
2.98376
2.98376
2.98376
2.98376
2.98376
2.98376
2.98376
2.98376
2.98376
2.98375
2.98375
2.98376
2.98377
2.98379
2.98384
2.98391
3.10936
3.10926
3.10919
3.10916
3.10914
3.10913
3.10912
3.10912
3.10912
3.10912
3.10912
3.10912
3.10912
3.10912
3.10912
3.10912
3.10912
3.10912
3.10912
3.10912
3.10912
3.10912
3.10912
3.10912
3.10913
3.10914
3.10916
3.10919
3.10925
3.10935
3.23353
3.2334
3.23332
3.23327
3.23324
3.23322
3.23321
3.2332
3.23319
3.23319
3.23319
3.23319
3.23319
3.23319
3.23319
3.23319
3.23319
3.23319
3.23319
3.23319
3.23319
3.23319
3.2332
3.23321
3.23322
3.23324
3.23327
3.23332
3.2334
3.23351
3.35475
3.3546
3.35451
3.35444
3.35439
3.35436
3.35434
3.35433
3.35432
3.35432
3.35431
3.35431
3.35431
3.35431
3.35431
3.35431
3.35431
3.35431
3.35431
3.35431
3.35432
3.35432
3.35433
3.35434
3.35437
3.3544
3.35444
3.35451
3.3546
3.35473
3.46905
3.46889
3.46878
3.4687
3.46864
3.4686
3.46857
3.46855
3.46854
3.46853
3.46853
3.46852
3.46852
3.46852
3.46852
3.46852
3.46852
3.46852
3.46852
3.46853
3.46853
3.46854
3.46855
3.46857
3.4686
3.46864
3.4687
3.46879
3.4689
3.46904
3.56731
3.56714
3.56702
3.56693
3.56686
3.5668
3.56677
3.56675
3.56673
3.56672
3.56672
3.56671
3.56671
3.56671
3.56671
3.56671
3.56671
3.56671
3.56671
3.56672
3.56672
3.56673
3.56675
3.56677
3.56681
3.56686
3.56693
3.56703
3.56715
3.5673
3.63061
3.63044
3.63031
3.63022
3.63014
3.63009
3.63005
3.63002
3.63001
3.62999
3.62999
3.62999
3.62998
3.62998
3.62998
3.62998
3.62998
3.62998
3.62999
3.62999
3.63
3.63001
3.63002
3.63005
3.63009
3.63015
3.63022
3.63032
3.63045
3.63061
0.0504402
0.0504402
0.0504402
0.0504401
0.0504398
0.0504394
0.050439
0.0504386
0.0504382
0.0504378
0.0504375
0.0504373
0.0504371
0.050437
0.0504369
0.0504369
0.0504369
0.050437
0.0504372
0.0504375
0.0504378
0.0504381
0.0504385
0.0504389
0.0504393
0.0504397
0.0504401
0.0504404
0.0504405
0.0504404
0.199891
0.199894
0.199894
0.199894
0.199894
0.199895
0.199896
0.199897
0.199898
0.199899
0.199899
0.1999
0.199901
0.199901
0.199902
0.199902
0.199902
0.199901
0.1999
0.199899
0.199898
0.199897
0.199896
0.199895
0.199895
0.199894
0.199894
0.199894
0.199894
0.199892
0.325789
0.32579
0.325789
0.32579
0.32579
0.32579
0.325791
0.325791
0.325792
0.325792
0.325793
0.325793
0.325794
0.325794
0.325794
0.325794
0.325794
0.325794
0.325793
0.325793
0.325792
0.325792
0.325791
0.325791
0.32579
0.32579
0.32579
0.325789
0.32579
0.325789
0.452462
0.452463
0.452463
0.452464
0.452464
0.452465
0.452466
0.452466
0.452467
0.452468
0.452469
0.452469
0.45247
0.45247
0.452471
0.452471
0.45247
0.45247
0.452469
0.452469
0.452468
0.452467
0.452466
0.452466
0.452465
0.452464
0.452464
0.452463
0.452463
0.452462
0.579149
0.57915
0.579151
0.579152
0.579153
0.579154
0.579156
0.579157
0.579158
0.57916
0.579161
0.579162
0.579163
0.579164
0.579164
0.579164
0.579164
0.579163
0.579162
0.579161
0.57916
0.579158
0.579157
0.579156
0.579154
0.579153
0.579152
0.579151
0.57915
0.579149
0.70576
0.705762
0.705763
0.705764
0.705766
0.705768
0.705771
0.705773
0.705775
0.705777
0.705779
0.705781
0.705782
0.705783
0.705784
0.705784
0.705783
0.705782
0.705781
0.705779
0.705777
0.705775
0.705773
0.705771
0.705768
0.705766
0.705764
0.705763
0.705761
0.70576
0.832356
0.832358
0.83236
0.832363
0.832366
0.832369
0.832372
0.832376
0.832379
0.832382
0.832385
0.832387
0.832389
0.83239
0.832391
0.83239
0.83239
0.832389
0.832387
0.832384
0.832382
0.832379
0.832376
0.832372
0.832369
0.832366
0.832363
0.83236
0.832358
0.832356
0.958978
0.958981
0.958984
0.958987
0.958992
0.958997
0.959001
0.959006
0.95901
0.959014
0.959017
0.95902
0.959022
0.959024
0.959025
0.959025
0.959024
0.959022
0.95902
0.959017
0.959014
0.95901
0.959006
0.959001
0.958996
0.958992
0.958987
0.958984
0.95898
0.958977
1.08563
1.08564
1.08564
1.08565
1.08565
1.08566
1.08566
1.08567
1.08567
1.08568
1.08568
1.08569
1.08569
1.08569
1.08569
1.08569
1.08569
1.08569
1.08569
1.08568
1.08568
1.08567
1.08567
1.08566
1.08566
1.08565
1.08565
1.08564
1.08564
1.08563
1.21231
1.21232
1.21232
1.21233
1.21234
1.21235
1.21235
1.21236
1.21237
1.21237
1.21238
1.21238
1.21238
1.21239
1.21239
1.21239
1.21239
1.21238
1.21238
1.21238
1.21237
1.21237
1.21236
1.21235
1.21235
1.21234
1.21233
1.21232
1.21232
1.21231
1.33901
1.33901
1.33902
1.33903
1.33904
1.33905
1.33906
1.33907
1.33908
1.33908
1.33909
1.33909
1.3391
1.3391
1.3391
1.3391
1.3391
1.3391
1.33909
1.33909
1.33908
1.33908
1.33907
1.33906
1.33905
1.33904
1.33903
1.33902
1.33901
1.33901
1.46571
1.46572
1.46572
1.46574
1.46575
1.46576
1.46577
1.46578
1.46579
1.4658
1.4658
1.46581
1.46581
1.46581
1.46582
1.46582
1.46581
1.46581
1.46581
1.4658
1.4658
1.46579
1.46578
1.46577
1.46576
1.46575
1.46574
1.46572
1.46571
1.46571
1.59241
1.59241
1.59242
1.59243
1.59245
1.59247
1.59248
1.59249
1.5925
1.59251
1.59251
1.59252
1.59252
1.59252
1.59252
1.59252
1.59252
1.59252
1.59252
1.59251
1.59251
1.5925
1.59249
1.59248
1.59246
1.59245
1.59243
1.59242
1.59241
1.59241
1.71909
1.71909
1.7191
1.71911
1.71913
1.71915
1.71916
1.71918
1.71919
1.71919
1.7192
1.71921
1.71921
1.71921
1.71921
1.71921
1.71921
1.71921
1.71921
1.7192
1.71919
1.71919
1.71918
1.71916
1.71915
1.71913
1.71911
1.71909
1.71908
1.71908
1.84574
1.84573
1.84574
1.84576
1.84578
1.8458
1.84582
1.84583
1.84584
1.84585
1.84586
1.84586
1.84587
1.84587
1.84587
1.84587
1.84587
1.84587
1.84586
1.84586
1.84585
1.84584
1.84583
1.84582
1.8458
1.84578
1.84576
1.84574
1.84573
1.84573
1.97235
1.97234
1.97235
1.97237
1.97239
1.97241
1.97243
1.97245
1.97246
1.97247
1.97247
1.97248
1.97248
1.97248
1.97248
1.97248
1.97248
1.97248
1.97248
1.97247
1.97246
1.97246
1.97245
1.97243
1.97241
1.97239
1.97237
1.97235
1.97234
1.97235
2.09892
2.0989
2.0989
2.09892
2.09894
2.09897
2.09899
2.099
2.09901
2.09902
2.09903
2.09903
2.09904
2.09904
2.09904
2.09904
2.09904
2.09904
2.09903
2.09903
2.09902
2.09901
2.099
2.09899
2.09897
2.09894
2.09892
2.0989
2.09889
2.09891
2.22543
2.2254
2.22539
2.22541
2.22543
2.22546
2.22548
2.22549
2.2255
2.22551
2.22552
2.22552
2.22552
2.22553
2.22553
2.22553
2.22553
2.22552
2.22552
2.22552
2.22551
2.2255
2.22549
2.22548
2.22546
2.22543
2.22541
2.22539
2.22539
2.22542
2.35187
2.35182
2.35181
2.35182
2.35184
2.35187
2.35189
2.3519
2.35191
2.35192
2.35193
2.35193
2.35193
2.35193
2.35193
2.35193
2.35193
2.35193
2.35193
2.35193
2.35192
2.35191
2.3519
2.35188
2.35186
2.35184
2.35182
2.35181
2.35182
2.35186
2.47823
2.47816
2.47814
2.47814
2.47816
2.47818
2.4782
2.47821
2.47822
2.47823
2.47823
2.47824
2.47824
2.47824
2.47824
2.47824
2.47824
2.47824
2.47824
2.47823
2.47823
2.47822
2.47821
2.4782
2.47818
2.47816
2.47814
2.47814
2.47816
2.47822
2.60448
2.60439
2.60435
2.60434
2.60435
2.60437
2.60438
2.60439
2.6044
2.60441
2.60441
2.60441
2.60442
2.60442
2.60442
2.60442
2.60442
2.60442
2.60441
2.60441
2.60441
2.6044
2.60439
2.60438
2.60437
2.60435
2.60434
2.60435
2.60439
2.60447
2.73058
2.73046
2.7304
2.73038
2.73037
2.73038
2.73039
2.7304
2.73041
2.73041
2.73041
2.73042
2.73042
2.73042
2.73042
2.73042
2.73042
2.73042
2.73042
2.73041
2.73041
2.73041
2.7304
2.73039
2.73038
2.73037
2.73037
2.7304
2.73045
2.73056
2.85641
2.85626
2.85618
2.85614
2.85612
2.85612
2.85612
2.85613
2.85613
2.85613
2.85614
2.85614
2.85614
2.85614
2.85614
2.85614
2.85614
2.85614
2.85614
2.85614
2.85613
2.85613
2.85613
2.85612
2.85612
2.85612
2.85614
2.85618
2.85626
2.8564
2.98177
2.98159
2.98148
2.98141
2.98138
2.98137
2.98136
2.98136
2.98136
2.98136
2.98135
2.98135
2.98135
2.98135
2.98135
2.98135
2.98135
2.98135
2.98135
2.98135
2.98135
2.98135
2.98136
2.98136
2.98137
2.98138
2.98141
2.98147
2.98158
2.98175
3.10615
3.10594
3.1058
3.10571
3.10566
3.10563
3.10561
3.1056
3.10559
3.10559
3.10558
3.10558
3.10558
3.10558
3.10558
3.10558
3.10558
3.10558
3.10558
3.10558
3.10559
3.10559
3.1056
3.10561
3.10563
3.10566
3.10571
3.1058
3.10593
3.10614
3.22849
3.22824
3.22807
3.22796
3.22788
3.22783
3.2278
3.22778
3.22777
3.22776
3.22775
3.22775
3.22775
3.22775
3.22775
3.22775
3.22775
3.22775
3.22775
3.22775
3.22776
3.22777
3.22778
3.2278
3.22783
3.22788
3.22796
3.22807
3.22824
3.22848
3.34644
3.34616
3.34596
3.34581
3.34571
3.34564
3.3456
3.34557
3.34555
3.34553
3.34553
3.34552
3.34552
3.34552
3.34552
3.34552
3.34552
3.34552
3.34552
3.34553
3.34553
3.34555
3.34557
3.3456
3.34565
3.34572
3.34582
3.34597
3.34617
3.34643
3.45507
3.45476
3.45453
3.45435
3.45423
3.45414
3.45408
3.45404
3.45401
3.454
3.45399
3.45398
3.45398
3.45398
3.45397
3.45397
3.45398
3.45398
3.45398
3.45399
3.454
3.45401
3.45404
3.45408
3.45415
3.45424
3.45437
3.45454
3.45477
3.45506
3.54465
3.54433
3.54408
3.54389
3.54374
3.54364
3.54357
3.54352
3.54349