/*--------------------------------*- C++ -*----------------------------------*\
| =========                 |                                                 |
| \\      /  F ield         | OpenFOAM: The Open Source CFD Toolbox           |
|  \\    /   O peration     | Version:  2506                                  |
|   \\  /    A nd           | Website:  www.openfoam.com                      |
|    \\/     M anipulation  |                                                 |
\*---------------------------------------------------------------------------*/
FoamFile
{
    version     2.0;
    format      ascii;
    arch        "LSB;label=32;scalar=64";
    class       volScalarField;
    location    "40";
    object      p;
}
// * * * * * * * * * * * * * * * * * * * * * * * * * * * * * * * * * * * * * //

dimensions      [0 2 -2 0 0 0 0];

internalField   nonuniform List<scalar> 
144676
(
0.0413606
0.0416306
0.0420354
0.0426001
0.0433054
0.044126
0.0450291
0.0459768
0.0469284
0.0478419
0.0486768
0.0493955
0.0499653
0.0503601
0.0505622
0.050563
0.0503632
0.0499721
0.0494073
0.0486938
0.0478631
0.0469513
0.0459983
0.0450455
0.0441347
0.0433048
0.0425902
0.0420178
0.0416084
0.0413369
0.0574475
0.0578796
0.0583004
0.0588688
0.0595741
0.0603934
0.0612947
0.0622403
0.0631896
0.0641007
0.0649333
0.0656499
0.0662175
0.0666103
0.066811
0.0668116
0.0666127
0.0662234
0.065661
0.0649501
0.0641219
0.0632124
0.0622612
0.0613105
0.0604021
0.0595742
0.0588603
0.0582853
0.0578608
0.0574266
0.094939
0.0951252
0.0955051
0.0960574
0.0967534
0.0975646
0.098457
0.0993926
0.100331
0.101231
0.102053
0.102759
0.103318
0.103705
0.103902
0.103902
0.103705
0.103321
0.102766
0.102063
0.101245
0.100345
0.0994053
0.0984668
0.097571
0.0967556
0.0960556
0.0955004
0.0951183
0.0949286
0.122049
0.122347
0.122736
0.123285
0.123971
0.124768
0.125644
0.12656
0.127477
0.128357
0.12916
0.129849
0.130393
0.130769
0.13096
0.13096
0.130769
0.130394
0.129851
0.129163
0.128362
0.127481
0.126561
0.125644
0.124769
0.123972
0.123287
0.122741
0.122352
0.12205
0.144438
0.144698
0.145072
0.145604
0.146271
0.147044
0.147892
0.148778
0.149665
0.150516
0.151291
0.151956
0.15248
0.152842
0.153027
0.153027
0.152842
0.15248
0.151955
0.15129
0.150514
0.149661
0.148771
0.147884
0.147037
0.146267
0.145605
0.145078
0.144708
0.144446
0.162773
0.163015
0.163374
0.163885
0.164525
0.165266
0.166076
0.166923
0.167771
0.168584
0.169325
0.16996
0.17046
0.170805
0.170982
0.170983
0.170808
0.170462
0.16996
0.169323
0.16858
0.167765
0.166914
0.166064
0.165253
0.164514
0.163879
0.163375
0.163023
0.162783
0.177988
0.178208
0.178547
0.179031
0.179635
0.180335
0.1811
0.1819
0.182702
0.18347
0.184171
0.184771
0.185244
0.18557
0.185738
0.18574
0.185575
0.185248
0.184774
0.184172
0.18347
0.182699
0.181893
0.181088
0.180318
0.179618
0.179018
0.178542
0.178213
0.177997
0.190689
0.190888
0.191204
0.191655
0.19222
0.192873
0.193587
0.194333
0.195082
0.195801
0.196456
0.197016
0.197457
0.197763
0.19792
0.197923
0.19777
0.197465
0.197022
0.196461
0.195805
0.195085
0.19433
0.193575
0.192854
0.192199
0.191638
0.191196
0.19089
0.190696
0.201356
0.201535
0.201824
0.20224
0.202761
0.203362
0.20402
0.204709
0.2054
0.206062
0.206666
0.207182
0.207589
0.207871
0.208017
0.208021
0.207881
0.207601
0.207194
0.206677
0.206072
0.205406
0.204708
0.20401
0.203345
0.202741
0.202225
0.201818
0.201537
0.201363
0.210361
0.210519
0.210782
0.211159
0.211632
0.212179
0.212777
0.213403
0.21403
0.214633
0.215181
0.215649
0.216019
0.216276
0.216411
0.216417
0.216292
0.216041
0.215672
0.215202
0.214652
0.214045
0.213408
0.212773
0.212169
0.211621
0.211152
0.210782
0.210528
0.210373
0.218004
0.218143
0.218376
0.218714
0.219137
0.219626
0.220161
0.22072
0.221281
0.22182
0.22231
0.22273
0.223062
0.223295
0.223419
0.223429
0.223321
0.223098
0.222769
0.222348
0.221854
0.221309
0.220739
0.220171
0.21963
0.219139
0.218719
0.218389
0.218163
0.218028
0.224536
0.224654
0.224858
0.225154
0.225526
0.225956
0.226426
0.226917
0.227411
0.227886
0.228318
0.22869
0.228985
0.229194
0.229308
0.22932
0.229228
0.229034
0.228744
0.228372
0.227936
0.227455
0.226953
0.226452
0.225975
0.225542
0.225174
0.224886
0.224691
0.224574
0.230169
0.230267
0.230442
0.230696
0.231017
0.231387
0.231792
0.232216
0.232643
0.233054
0.233431
0.233756
0.234016
0.234201
0.234303
0.234316
0.234238
0.23407
0.233818
0.233494
0.233117
0.232702
0.232266
0.231832
0.231418
0.231045
0.230729
0.230485
0.230319
0.230218
0.235092
0.235172
0.235317
0.235531
0.235801
0.236112
0.236453
0.23681
0.237172
0.237524
0.237848
0.238129
0.238355
0.238516
0.238604
0.238616
0.238548
0.238403
0.238188
0.237913
0.237594
0.237242
0.236871
0.236503
0.236154
0.235841
0.235577
0.235373
0.235234
0.23515
0.239475
0.239539
0.239658
0.239832
0.240051
0.240305
0.240583
0.240877
0.241178
0.241473
0.241748
0.241988
0.24218
0.242317
0.242391
0.2424
0.242342
0.24222
0.24204
0.241812
0.241547
0.241254
0.240948
0.240646
0.240362
0.240108
0.239893
0.239726
0.239611
0.239544
0.24348
0.243528
0.24362
0.243755
0.243926
0.244125
0.244346
0.244582
0.244827
0.245071
0.2453
0.245499
0.245659
0.245772
0.245833
0.245839
0.24579
0.24569
0.245543
0.245357
0.245141
0.244905
0.244661
0.244425
0.244204
0.244006
0.243835
0.243702
0.243612
0.243562
0.247257
0.247289
0.247355
0.247453
0.24758
0.24773
0.2479
0.248085
0.24828
0.248476
0.24866
0.248821
0.24895
0.24904
0.249087
0.24909
0.24905
0.24897
0.248851
0.248702
0.248532
0.24835
0.248166
0.247991
0.247828
0.247679
0.247551
0.247453
0.247389
0.247354
0.250956
0.250972
0.251013
0.25108
0.251168
0.251276
0.251401
0.25154
0.251689
0.251839
0.25198
0.252103
0.252201
0.252269
0.252303
0.252303
0.252271
0.252206
0.252112
0.251997
0.25187
0.251739
0.251611
0.25149
0.251376
0.251274
0.251189
0.251127
0.251087
0.251066
0.254733
0.254735
0.254756
0.254795
0.25485
0.25492
0.255004
0.255099
0.255202
0.255308
0.255408
0.255494
0.255562
0.255609
0.255631
0.25563
0.255603
0.255553
0.255482
0.255399
0.255311
0.255226
0.255145
0.255071
0.255003
0.254946
0.254904
0.254875
0.254856
0.254847
0.258763
0.258752
0.258756
0.25877
0.258792
0.258825
0.258868
0.258919
0.258979
0.259041
0.259101
0.259153
0.259194
0.259223
0.259237
0.259234
0.259215
0.259179
0.25913
0.259076
0.259023
0.258977
0.258938
0.258906
0.258883
0.25887
0.258866
0.258865
0.258865
0.258869
0.263239
0.263218
0.263205
0.263191
0.26318
0.263173
0.263174
0.263183
0.2632
0.263222
0.263244
0.263265
0.263284
0.2633
0.263308
0.263307
0.263295
0.263274
0.263245
0.263217
0.263195
0.263183
0.263182
0.263191
0.26321
0.263237
0.263265
0.263289
0.263307
0.263328
0.26839
0.268355
0.268321
0.268279
0.268232
0.268186
0.268145
0.268113
0.268088
0.268071
0.26806
0.268056
0.268058
0.268063
0.268068
0.268068
0.268062
0.268053
0.268043
0.268039
0.268046
0.268068
0.268104
0.268154
0.268212
0.268273
0.26833
0.268378
0.268418
0.268458
0.274498
0.274444
0.274388
0.274315
0.274232
0.274147
0.274067
0.273993
0.273929
0.273876
0.273835
0.273808
0.273794
0.273791
0.273791
0.27379
0.273788
0.27379
0.2738
0.273823
0.273861
0.273917
0.27399
0.274077
0.274171
0.274263
0.274348
0.274425
0.274489
0.274549
0.281943
0.281866
0.281786
0.281683
0.281566
0.281443
0.281322
0.281208
0.281106
0.281019
0.280949
0.2809
0.28087
0.280857
0.280852
0.280851
0.280855
0.280871
0.280904
0.280956
0.281026
0.281115
0.281222
0.281343
0.281468
0.281591
0.28171
0.281818
0.281906
0.281986
0.291269
0.291164
0.29106
0.290926
0.290774
0.290613
0.290452
0.2903
0.290161
0.290042
0.289945
0.289873
0.289826
0.289802
0.289793
0.289795
0.28981
0.289842
0.289898
0.289977
0.290078
0.290198
0.290337
0.290489
0.290647
0.290806
0.29096
0.291098
0.291207
0.291311
0.303268
0.303128
0.302996
0.302829
0.302638
0.302438
0.302239
0.302051
0.30188
0.301732
0.30161
0.301517
0.301454
0.301418
0.301407
0.301414
0.30144
0.301489
0.301565
0.30167
0.3018
0.301953
0.302122
0.302305
0.302496
0.302689
0.302877
0.303044
0.303175
0.303316
0.319064
0.31887
0.318704
0.318498
0.318268
0.318031
0.317798
0.317579
0.31738
0.317208
0.317064
0.316953
0.316874
0.316829
0.316812
0.316823
0.31686
0.316925
0.317021
0.31715
0.317309
0.317489
0.317686
0.317895
0.318115
0.318341
0.318564
0.318766
0.318931
0.319131
0.340227
0.34002
0.339816
0.339569
0.339302
0.339032
0.33877
0.338524
0.338301
0.338108
0.337948
0.337823
0.337731
0.337674
0.337652
0.337666
0.337714
0.337793
0.337907
0.338056
0.338236
0.338438
0.338655
0.338887
0.339136
0.339397
0.339659
0.339903
0.340107
0.340324
0.371002
0.370965
0.370761
0.370484
0.370186
0.369888
0.3696
0.369332
0.369091
0.368884
0.368712
0.368576
0.368474
0.368408
0.368382
0.368398
0.368453
0.368544
0.368671
0.368835
0.369029
0.369245
0.369477
0.369729
0.370005
0.370299
0.370598
0.370877
0.371084
0.371125
0.414523
0.413755
0.413453
0.413126
0.412794
0.41247
0.412164
0.411884
0.411633
0.411417
0.411238
0.411095
0.410987
0.410916
0.410888
0.410905
0.410965
0.411063
0.411199
0.411371
0.411572
0.411792
0.412031
0.412297
0.412594
0.412917
0.413256
0.413592
0.413896
0.414665
0.0560526
0.0563097
0.0567019
0.0572797
0.0580091
0.0588622
0.0598033
0.0607922
0.0617854
0.0627391
0.0636107
0.0643607
0.0649551
0.0653667
0.0655773
0.0655777
0.0653686
0.0649595
0.0643689
0.0636232
0.0627555
0.0618038
0.0608101
0.0598182
0.0588714
0.0580101
0.0572715
0.0566861
0.0562894
0.0560304
0.0742694
0.0745292
0.0749172
0.0754993
0.0762305
0.0770845
0.0780259
0.0790147
0.0800073
0.08096
0.0818302
0.0825784
0.0831707
0.0835802
0.0837894
0.0837896
0.0835812
0.0831735
0.0825846
0.0818405
0.080974
0.0800234
0.0790306
0.07804
0.0770942
0.0762333
0.0754943
0.0749055
0.0745133
0.074251
0.106875
0.106951
0.107317
0.107883
0.108604
0.10945
0.110382
0.111361
0.112342
0.113284
0.114143
0.114881
0.115464
0.115867
0.116072
0.116072
0.115867
0.115465
0.114883
0.114148
0.113291
0.11235
0.111369
0.11039
0.109457
0.108609
0.107884
0.107316
0.106947
0.106867
0.129568
0.129781
0.130161
0.130726
0.131438
0.13227
0.133184
0.134142
0.135102
0.136022
0.136861
0.13758
0.138148
0.13854
0.13874
0.13874
0.13854
0.138148
0.13758
0.136861
0.136021
0.1351
0.13414
0.133183
0.13227
0.131441
0.13073
0.130167
0.129786
0.129571
0.149882
0.150048
0.150411
0.150958
0.151649
0.152454
0.153339
0.154265
0.155193
0.156082
0.156891
0.157585
0.158132
0.158509
0.158702
0.158703
0.158511
0.158133
0.157584
0.156888
0.156076
0.155185
0.154256
0.15333
0.152448
0.151646
0.150958
0.150415
0.150056
0.149891
0.166748
0.166922
0.167276
0.167802
0.168465
0.169235
0.17008
0.170964
0.171851
0.1727
0.173473
0.174135
0.174656
0.175016
0.175201
0.175203
0.175021
0.17466
0.174136
0.173471
0.172694
0.171843
0.170954
0.170068
0.169223
0.168454
0.167795
0.167275
0.166928
0.166758
0.180983
0.181147
0.181483
0.181981
0.182608
0.183335
0.184132
0.184967
0.185803
0.186605
0.187335
0.18796
0.188453
0.188793
0.188969
0.188972
0.1888
0.18846
0.187965
0.187336
0.186604
0.185799
0.184959
0.184119
0.183319
0.18259
0.181967
0.181478
0.181151
0.18099
0.192985
0.19314
0.193455
0.19392
0.194505
0.195183
0.195926
0.196703
0.197483
0.198232
0.198913
0.199496
0.199955
0.200274
0.200439
0.200443
0.200283
0.199966
0.199504
0.198919
0.198236
0.197485
0.196698
0.195913
0.195164
0.194484
0.193903
0.193447
0.193141
0.19299
0.20314
0.203283
0.203574
0.204003
0.204542
0.205165
0.205848
0.206563
0.207281
0.20797
0.208596
0.209133
0.209556
0.20985
0.210003
0.210008
0.209862
0.209572
0.209148
0.20861
0.20798
0.207287
0.206561
0.205837
0.205148
0.204522
0.203988
0.203567
0.203285
0.203145
0.211757
0.211887
0.212152
0.212542
0.21303
0.213595
0.214214
0.214861
0.215512
0.216136
0.216704
0.217191
0.217575
0.217843
0.217985
0.217992
0.217863
0.217602
0.217219
0.21673
0.216157
0.215526
0.214867
0.21421
0.213585
0.213018
0.212533
0.21215
0.211894
0.211768
0.2191
0.219215
0.21945
0.219798
0.220234
0.220738
0.221289
0.221866
0.222446
0.223003
0.223511
0.223946
0.224291
0.224534
0.224664
0.224674
0.224563
0.224332
0.22399
0.223552
0.223039
0.222474
0.221885
0.221299
0.22074
0.220233
0.2198
0.21946
0.219232
0.21912
0.22539
0.225489
0.225695
0.225999
0.226381
0.226821
0.227304
0.227809
0.228318
0.228808
0.229256
0.229641
0.229948
0.230165
0.230283
0.230297
0.230201
0.229999
0.229698
0.229312
0.22886
0.228363
0.227845
0.227329
0.226837
0.226392
0.226014
0.225719
0.22552
0.225422
0.230825
0.230908
0.231083
0.231344
0.231671
0.232049
0.232462
0.232897
0.233336
0.23376
0.23415
0.234487
0.234756
0.234948
0.235054
0.235067
0.234985
0.234809
0.234548
0.234214
0.233824
0.233395
0.232946
0.232499
0.232074
0.231693
0.231372
0.231121
0.230951
0.230866
0.235581
0.235648
0.235794
0.236012
0.236285
0.2366
0.236945
0.237311
0.237682
0.238045
0.23838
0.238671
0.238905
0.239072
0.239163
0.239174
0.239102
0.238952
0.238729
0.238446
0.238117
0.237753
0.237372
0.236995
0.236639
0.236321
0.236053
0.235843
0.2357
0.235631
0.239819
0.239873
0.23999
0.240165
0.240385
0.240639
0.24092
0.24122
0.241529
0.241834
0.242118
0.242366
0.242566
0.242707
0.242783
0.24279
0.242729
0.242602
0.242416
0.242182
0.241909
0.241607
0.241294
0.240987
0.240699
0.240442
0.240223
0.24005
0.239934
0.239882
0.243693
0.243734
0.243823
0.243957
0.244125
0.244323
0.244545
0.244785
0.245037
0.245289
0.245525
0.245732
0.245898
0.246014
0.246075
0.246079
0.246028
0.245924
0.245771
0.24558
0.245358
0.245115
0.244868
0.24463
0.244407
0.244205
0.244031
0.243895
0.243806
0.243769
0.247347
0.247374
0.247436
0.247532
0.247656
0.247804
0.247973
0.248161
0.248361
0.248563
0.248753
0.24892
0.249053
0.249145
0.249192
0.249193
0.24915
0.249065
0.248942
0.248789
0.248615
0.248429
0.248243
0.248067
0.247902
0.247751
0.247623
0.247524
0.247462
0.247437
0.250926
0.250939
0.250978
0.251041
0.251126
0.251231
0.251354
0.251494
0.251645
0.251799
0.251946
0.252073
0.252175
0.252244
0.252278
0.252276
0.25224
0.252171
0.252073
0.251956
0.251826
0.251692
0.251561
0.251439
0.251325
0.251224
0.251142
0.25108
0.251041
0.251027
0.254581
0.254583
0.254601
0.254636
0.254687
0.254752
0.254833
0.254927
0.255032
0.25514
0.255244
0.255335
0.255407
0.255455
0.255477
0.255473
0.255443
0.255389
0.255315
0.255229
0.255139
0.255051
0.254968
0.254894
0.254829
0.254776
0.254737
0.254708
0.25469
0.254686
0.258476
0.258469
0.25847
0.258478
0.258495
0.258522
0.258561
0.258611
0.258671
0.258736
0.258799
0.258855
0.2589
0.258931
0.258945
0.25894
0.258918
0.258879
0.258827
0.25877
0.258714
0.258665
0.258625
0.258596
0.258577
0.25857
0.258568
0.258568
0.258569
0.258576
0.262791
0.262778
0.26276
0.262741
0.262723
0.262711
0.262708
0.262715
0.262732
0.262756
0.262781
0.262806
0.262829
0.262847
0.262856
0.262853
0.262838
0.262812
0.262781
0.262749
0.262723
0.26271
0.26271
0.262724
0.26275
0.262781
0.262813
0.262839
0.262862
0.26288
0.267733
0.267711
0.267673
0.267625
0.267572
0.267521
0.267477
0.267442
0.267417
0.267401
0.267392
0.26739
0.267395
0.267403
0.267407
0.267404
0.267394
0.267382
0.267369
0.267362
0.267366
0.267389
0.267429
0.267485
0.267549
0.267615
0.267678
0.267734
0.267778
0.267807
0.27355
0.273517
0.273459
0.273381
0.273294
0.273205
0.27312
0.273043
0.272976
0.272921
0.27288
0.272854
0.272843
0.27284
0.272838
0.272834
0.272831
0.272831
0.272839
0.27286
0.272898
0.272956
0.273035
0.273127
0.273226
0.273325
0.273421
0.273507
0.273573
0.273609
0.280569
0.280525
0.280446
0.280341
0.28022
0.280092
0.279966
0.279845
0.279737
0.279646
0.279574
0.279525
0.279496
0.279483
0.279477
0.279474
0.279478
0.279494
0.279525
0.279576
0.279648
0.279741
0.279853
0.279979
0.280112
0.280246
0.280376
0.280491
0.280575
0.280618
0.28925
0.289194
0.289095
0.288959
0.288803
0.288636
0.288467
0.288306
0.28816
0.288035
0.287934
0.287861
0.287815
0.28779
0.287781
0.287784
0.287798
0.28783
0.287884
0.287965
0.28807
0.288196
0.288341
0.288501
0.288668
0.288838
0.289001
0.289142
0.289243
0.289297
0.300262
0.300188
0.300064
0.299895
0.2997
0.299493
0.299285
0.299088
0.298909
0.298754
0.298627
0.298531
0.298466
0.298431
0.298421
0.298428
0.298454
0.298501
0.298579
0.298689
0.298826
0.298985
0.299162
0.299353
0.299553
0.299755
0.299949
0.300118
0.300241
0.300318
0.314581
0.314466
0.31431
0.314103
0.313869
0.313626
0.313385
0.313156
0.312946
0.312764
0.312615
0.3125
0.31242
0.312375
0.312359
0.312371
0.312407
0.312472
0.312572
0.312708
0.312874
0.313061
0.313264
0.313482
0.313712
0.313947
0.314175
0.314378
0.314534
0.314655
0.333494
0.333295
0.33309
0.332843
0.332573
0.332296
0.332023
0.331763
0.331528
0.331325
0.331159
0.331029
0.330936
0.330879
0.330858
0.330872
0.330919
0.331001
0.33112
0.331277
0.331464
0.331672
0.331899
0.332143
0.332403
0.332672
0.332937
0.333183
0.333387
0.333591
0.358575
0.358548
0.358342
0.358065
0.357764
0.357456
0.357155
0.356873
0.35662
0.356401
0.356221
0.356079
0.355976
0.355911
0.355885
0.355901
0.355958
0.356053
0.356188
0.356359
0.35656
0.356783
0.357027
0.357291
0.357577
0.357876
0.358178
0.358458
0.358667
0.358695
0.394947
0.394208
0.393928
0.393599
0.393259
0.392923
0.392603
0.392308
0.392043
0.391814
0.391625
0.391477
0.391369
0.391299
0.391272
0.39129
0.391352
0.391456
0.391598
0.391776
0.391981
0.392209
0.392461
0.392741
0.393049
0.393381
0.393725
0.394061
0.394344
0.395084
0.0990704
0.0991762
0.0995676
0.100182
0.100968
0.101893
0.102915
0.103991
0.105071
0.106108
0.107056
0.107871
0.108516
0.108963
0.109192
0.109192
0.108964
0.108517
0.107873
0.107059
0.106113
0.105078
0.103999
0.102924
0.101901
0.100971
0.100179
0.0995574
0.0991622
0.0990549
0.103523
0.103747
0.104154
0.104776
0.105564
0.10649
0.107513
0.108589
0.109669
0.110705
0.111651
0.112464
0.113108
0.113553
0.113781
0.113782
0.113554
0.113109
0.112465
0.111653
0.110708
0.109673
0.108595
0.107522
0.106498
0.105569
0.104775
0.104147
0.103737
0.10351
0.125589
0.12569
0.126093
0.1267
0.127478
0.128394
0.129405
0.130467
0.131534
0.132557
0.133489
0.13429
0.134924
0.135362
0.135587
0.135587
0.135364
0.134926
0.134292
0.13349
0.132556
0.131534
0.130469
0.129408
0.128399
0.127484
0.126704
0.126094
0.125689
0.125584
0.141957
0.14219
0.142603
0.14321
0.143977
0.144874
0.145864
0.146902
0.147943
0.148941
0.14985
0.15063
0.151246
0.151672
0.151891
0.151893
0.151676
0.15125
0.150632
0.149849
0.148936
0.147937
0.146896
0.14586
0.144874
0.143979
0.143213
0.142606
0.142193
0.141958
0.158728
0.158909
0.159302
0.159887
0.160628
0.161495
0.16245
0.163451
0.164456
0.165418
0.166294
0.167045
0.167638
0.168048
0.168259
0.168262
0.168055
0.167645
0.167048
0.166292
0.165411
0.164445
0.16344
0.16244
0.161489
0.160625
0.159885
0.159302
0.158912
0.15873
0.173118
0.173318
0.173701
0.174263
0.174972
0.175799
0.176709
0.177663
0.17862
0.179537
0.180372
0.181087
0.181652
0.182044
0.182246
0.18225
0.182053
0.181661
0.181093
0.180371
0.179531
0.17861
0.177651
0.176697
0.175788
0.174961
0.174254
0.173696
0.173317
0.173118
0.185714
0.185903
0.186265
0.186797
0.187465
0.188244
0.189099
0.189997
0.190897
0.19176
0.192547
0.193221
0.193754
0.194124
0.194315
0.194319
0.194134
0.193765
0.193229
0.19255
0.191759
0.190892
0.189988
0.189087
0.188228
0.187449
0.186782
0.186257
0.1859
0.185712
0.196559
0.196738
0.197078
0.197574
0.198196
0.198919
0.199713
0.200546
0.201383
0.202185
0.202916
0.203544
0.20404
0.204386
0.204565
0.204569
0.204396
0.204054
0.203556
0.202926
0.20219
0.201383
0.200541
0.199702
0.198902
0.198177
0.197558
0.197068
0.196734
0.196555
0.205877
0.206042
0.206354
0.206811
0.207382
0.208044
0.208771
0.209533
0.210299
0.211035
0.211705
0.212281
0.212737
0.213055
0.213221
0.213226
0.213069
0.212756
0.212301
0.211722
0.211047
0.210305
0.209532
0.208763
0.20803
0.207365
0.206796
0.206345
0.206036
0.205873
0.213866
0.214016
0.214299
0.214712
0.215228
0.215824
0.216479
0.217166
0.217858
0.218522
0.219128
0.219649
0.220063
0.220351
0.220503
0.22051
0.220371
0.22009
0.219679
0.219155
0.218544
0.217873
0.217174
0.21648
0.215818
0.215217
0.214701
0.214292
0.214012
0.213866
0.220724
0.220856
0.221107
0.221474
0.221931
0.22246
0.22304
0.22365
0.224264
0.224856
0.225396
0.225861
0.226231
0.226491
0.226629
0.226638
0.226517
0.226269
0.225902
0.225435
0.22489
0.224292
0.223671
0.223054
0.222465
0.221929
0.221471
0.221108
0.220862
0.220732
0.226632
0.226745
0.226962
0.227281
0.227678
0.228138
0.228643
0.229175
0.229713
0.230231
0.230707
0.231117
0.231444
0.231675
0.231799
0.23181
0.231706
0.231488
0.231166
0.230756
0.230278
0.229755
0.229211
0.22867
0.228154
0.227687
0.22729
0.226976
0.226762
0.22665
0.231756
0.231849
0.232033
0.232303
0.232641
0.233032
0.233462
0.233918
0.23438
0.234829
0.235242
0.235599
0.235886
0.236088
0.236198
0.236207
0.236117
0.235928
0.235651
0.235298
0.234887
0.234437
0.233968
0.233501
0.23306
0.232663
0.232328
0.232061
0.231879
0.231785
0.236252
0.236327
0.236478
0.2367
0.236978
0.237301
0.237659
0.238041
0.238432
0.238814
0.239169
0.239478
0.239725
0.239899
0.239992
0.239999
0.23992
0.23976
0.239525
0.239228
0.238882
0.238501
0.238105
0.237714
0.237347
0.237019
0.236741
0.236518
0.236367
0.236294
0.240267
0.240326
0.240444
0.240619
0.24084
0.241098
0.241388
0.2417
0.242025
0.242346
0.242647
0.242909
0.243118
0.243264
0.24334
0.243344
0.243277
0.243143
0.242948
0.242702
0.242415
0.2421
0.241776
0.24146
0.241166
0.240902
0.240675
0.240493
0.240374
0.240322
0.243943
0.243985
0.244072
0.244203
0.24437
0.244569
0.244796
0.245046
0.24531
0.245575
0.245824
0.246041
0.246214
0.246332
0.246392
0.246393
0.246337
0.246227
0.246067
0.245867
0.245633
0.245382
0.245128
0.244883
0.244655
0.244449
0.244272
0.244131
0.244044
0.244009
0.247417
0.247441
0.247498
0.24759
0.24771
0.247856
0.248029
0.248222
0.24843
0.248641
0.248841
0.249016
0.249154
0.249247
0.249293
0.24929
0.249243
0.249153
0.249025
0.248864
0.248681
0.248489
0.248299
0.248118
0.247951
0.247799
0.24767
0.24757
0.247512
0.247493
0.250823
0.25083
0.250862
0.250919
0.250998
0.2511
0.251223
0.251365
0.251521
0.251682
0.251835
0.25197
0.252076
0.252146
0.252178
0.252173
0.252133
0.25206
0.251958
0.251835
0.251698
0.251559
0.251425
0.2513
0.251187
0.251088
0.251008
0.250947
0.250914
0.250911
0.254305
0.254297
0.254307
0.254334
0.254377
0.254437
0.254515
0.254609
0.254716
0.254829
0.25494
0.255037
0.255112
0.255161
0.255183
0.255176
0.255143
0.255086
0.255009
0.254919
0.254823
0.254729
0.254644
0.25457
0.254509
0.254461
0.254425
0.254399
0.25439
0.254402
0.258015
0.257995
0.257984
0.257983
0.257991
0.258011
0.258046
0.258095
0.258156
0.258225
0.258293
0.258354
0.258403
0.258435
0.258449
0.258443
0.258418
0.258376
0.258321
0.25826
0.258198
0.258145
0.258104
0.258079
0.258068
0.258067
0.258071
0.258077
0.258091
0.258116
0.262119
0.262087
0.262055
0.262025
0.261999
0.26198
0.261973
0.261977
0.261994
0.262019
0.262047
0.262076
0.262102
0.262122
0.26213
0.262125
0.262108
0.26208
0.262045
0.262008
0.261978
0.261962
0.261966
0.261987
0.262022
0.262063
0.262105
0.262143
0.262179
0.262216
0.266795
0.266748
0.266695
0.266637
0.266577
0.266519
0.266469
0.266429
0.2664
0.266382
0.266373
0.266374
0.26638
0.266388
0.266391
0.266386
0.266375
0.26636
0.266344
0.266334
0.266337
0.266361
0.266407
0.266471
0.266547
0.266628
0.266707
0.266776
0.266833
0.266884
0.272243
0.272181
0.272107
0.272021
0.271927
0.27183
0.271736
0.27165
0.271575
0.271515
0.271472
0.271446
0.271434
0.27143
0.271427
0.271423
0.271419
0.271418
0.271424
0.271444
0.271484
0.271547
0.271633
0.271735
0.271849
0.271967
0.27208
0.272179
0.272259
0.272321
0.2787
0.278624
0.278531
0.278418
0.278289
0.278151
0.278012
0.277879
0.27776
0.277661
0.277585
0.277533
0.277503
0.277488
0.277481
0.277479
0.277484
0.277498
0.277528
0.27758
0.277657
0.277758
0.277879
0.278018
0.27817
0.278325
0.278471
0.278598
0.278697
0.27877
0.286453
0.286364
0.286251
0.286108
0.285942
0.285762
0.285579
0.285403
0.285244
0.285109
0.285002
0.284924
0.284875
0.284849
0.284839
0.284842
0.284857
0.284888
0.284943
0.285028
0.285141
0.285278
0.285436
0.285611
0.285799
0.285988
0.286164
0.286316
0.286433
0.286521
0.295828
0.295728
0.295591
0.295415
0.295211
0.294992
0.294769
0.294555
0.294358
0.29419
0.294054
0.293954
0.293887
0.29385
0.293837
0.293845
0.29387
0.29392
0.294002
0.294118
0.294264
0.294435
0.294627
0.294835
0.295055
0.295274
0.295479
0.295659
0.295797
0.2959
0.307138
0.307039
0.306877
0.306668
0.306428
0.306172
0.305912
0.305661
0.305432
0.305234
0.305076
0.304956
0.304874
0.304826
0.304808
0.304819
0.304856
0.304925
0.305032
0.305176
0.305351
0.305551
0.305771
0.306009
0.306258
0.306507
0.306744
0.306953
0.307116
0.307219
0.320513
0.320393
0.320194
0.319949
0.319673
0.31938
0.319085
0.318802
0.318545
0.318325
0.318146
0.31801
0.317915
0.317857
0.317836
0.317849
0.317898
0.317986
0.318114
0.318278
0.318476
0.3187
0.318948
0.319213
0.319489
0.319767
0.320036
0.320281
0.320482
0.320604
0.334654
0.334745
0.334543
0.334268
0.333959
0.333633
0.33331
0.333004
0.332728
0.332489
0.332294
0.332146
0.332042
0.331978
0.331953
0.331969
0.332029
0.332131
0.332272
0.332451
0.332665
0.332906
0.333171
0.333456
0.333756
0.334064
0.334366
0.334642
0.334846
0.334756
0.351651
0.351616
0.351385
0.351063
0.350717
0.350364
0.35002
0.3497
0.34941
0.34916
0.348957
0.348803
0.348693
0.348625
0.348598
0.348618
0.348684
0.348793
0.34894
0.349125
0.349343
0.349591
0.349868
0.350171
0.350496
0.350836
0.351174
0.351492
0.351724
0.351761
0.137274
0.137461
0.137928
0.138621
0.139504
0.140546
0.141699
0.142912
0.144131
0.145302
0.146373
0.147295
0.148026
0.148534
0.148794
0.148795
0.148536
0.148028
0.147295
0.14637
0.145298
0.144126
0.142909
0.141699
0.140548
0.139506
0.13862
0.137925
0.137455
0.137269
0.132023
0.132336
0.132816
0.133518
0.134406
0.135449
0.136603
0.137816
0.139035
0.140205
0.141274
0.142195
0.142925
0.143433
0.143693
0.143695
0.143437
0.14293
0.142197
0.141273
0.140201
0.13903
0.137812
0.136601
0.13545
0.134408
0.133519
0.132815
0.132333
0.132018
0.146564
0.146717
0.147185
0.147871
0.148746
0.149775
0.150913
0.152111
0.153313
0.154467
0.155521
0.156428
0.157147
0.157647
0.157904
0.157907
0.157653
0.157155
0.156433
0.155522
0.154463
0.153306
0.152104
0.150909
0.149774
0.148747
0.147873
0.147187
0.146717
0.146562
0.157478
0.157745
0.158215
0.158895
0.159754
0.160761
0.161871
0.163039
0.164212
0.165336
0.166363
0.167246
0.167946
0.168433
0.168684
0.168687
0.168442
0.167957
0.167253
0.166364
0.16533
0.164201
0.163028
0.161863
0.160756
0.159752
0.158894
0.158214
0.157744
0.157476
0.170479
0.170686
0.17113
0.171783
0.172609
0.173577
0.174646
0.17577
0.176898
0.177981
0.17897
0.179819
0.180493
0.180961
0.181204
0.181207
0.180971
0.180504
0.179827
0.17897
0.177974
0.176886
0.175756
0.174635
0.173569
0.172602
0.171776
0.171124
0.17068
0.170474
0.182043
0.182266
0.182696
0.18332
0.184108
0.185028
0.186044
0.187111
0.188184
0.189214
0.190154
0.190963
0.191604
0.19205
0.192281
0.192284
0.192059
0.191614
0.190969
0.190154
0.189207
0.188173
0.187099
0.186032
0.185017
0.184096
0.183309
0.182686
0.182258
0.182035
0.192633
0.192839
0.193241
0.193829
0.194568
0.195432
0.196384
0.197384
0.19839
0.199356
0.200239
0.200999
0.201602
0.202022
0.202239
0.202242
0.20203
0.201612
0.201006
0.200242
0.199354
0.198384
0.197376
0.196373
0.19542
0.194555
0.193816
0.193231
0.192829
0.192624
0.201979
0.202172
0.202546
0.203092
0.203778
0.204576
0.205456
0.206381
0.207311
0.208205
0.209023
0.209727
0.210287
0.210677
0.210879
0.210882
0.210685
0.210298
0.209739
0.209032
0.20821
0.207312
0.206378
0.205449
0.204566
0.203766
0.20308
0.202536
0.202161
0.201968
0.210159
0.210334
0.210676
0.211176
0.211802
0.212529
0.21333
0.214173
0.215021
0.215836
0.216583
0.217227
0.217739
0.218096
0.218281
0.218285
0.218107
0.217755
0.217244
0.216599
0.215849
0.215029
0.214177
0.21333
0.212525
0.211793
0.211166
0.210665
0.210322
0.210147
0.217262
0.217418
0.217725
0.218174
0.218735
0.219387
0.220105
0.220861
0.221623
0.222356
0.223028
0.223608
0.22407
0.224392
0.22456
0.224566
0.224407
0.224092
0.223634
0.223052
0.222377
0.22164
0.220875
0.220115
0.219391
0.218732
0.218166
0.217714
0.217408
0.217251
0.223412
0.223548
0.223817
0.224212
0.224705
0.225279
0.225913
0.22658
0.227254
0.227904
0.2285
0.229015
0.229426
0.229714
0.229865
0.229872
0.229734
0.229455
0.229049
0.228533
0.227935
0.227283
0.226607
0.225934
0.225293
0.22471
0.22421
0.223812
0.223544
0.223408
0.228742
0.228855
0.229085
0.229424
0.229849
0.230344
0.230892
0.231472
0.232059
0.232627
0.233149
0.233601
0.233962
0.234215
0.234349
0.234357
0.234237
0.233994
0.233639
0.23319
0.232669
0.232102
0.231513
0.230926
0.230369
0.229865
0.229434
0.229093
0.228863
0.228747
0.23338
0.233472
0.233662
0.233946
0.234302
0.234719
0.235183
0.235677
0.23618
0.236669
0.237121
0.237513
0.237827
0.238047
0.238163
0.23817
0.238066
0.237858
0.237554
0.237169
0.236724
0.236238
0.235733
0.235233
0.23476
0.234336
0.233973
0.233686
0.233493
0.2334
0.237458
0.237529
0.23768
0.237909
0.238198
0.238539
0.238923
0.239335
0.239758
0.240174
0.24056
0.240896
0.241165
0.241352
0.24145
0.241454
0.241366
0.24119
0.240935
0.240612
0.240238
0.239829
0.239406
0.23899
0.238601
0.238252
0.237954
0.237717
0.237562
0.237494
0.241103
0.241153
0.241267
0.241443
0.241668
0.241938
0.242246
0.242582
0.242932
0.243279
0.243604
0.243887
0.244113
0.244268
0.244347
0.244349
0.244275
0.24413
0.243919
0.243652
0.243341
0.243006
0.242662
0.242329
0.242018
0.24174
0.241501
0.241313
0.241195
0.241151
0.244438
0.244469
0.244548
0.244676
0.244843
0.245048
0.245287
0.245554
0.245836
0.246119
0.246386
0.246619
0.246803
0.246928
0.246991
0.246991
0.246929
0.246811
0.246638
0.24642
0.246169
0.245902
0.245634
0.245377
0.245138
0.244924
0.244742
0.244602
0.244519
0.244496
0.247588
0.2476
0.247647
0.247732
0.247848
0.247996
0.248174
0.248377
0.248596
0.248819
0.249032
0.249218
0.249364
0.249463
0.249511
0.249509
0.249459
0.249362
0.249222
0.249048
0.248852
0.248649
0.248448
0.248259
0.248085
0.247933
0.247806
0.247711
0.247661
0.247657
0.250676
0.250671
0.25069
0.250737
0.250809
0.250906
0.251029
0.251174
0.251336
0.251504
0.251667
0.251809
0.251922
0.251997
0.252033
0.252028
0.251986
0.251908
0.251798
0.251664
0.251518
0.25137
0.251229
0.2511
0.250986
0.250892
0.250818
0.250766
0.250746
0.250759
0.253831
0.25381
0.253804
0.253819
0.25385
0.253902
0.253974
0.254067
0.254177
0.254294
0.25441
0.254513
0.254595
0.254649
0.254674
0.254668
0.254635
0.254574
0.25449
0.254392