/*--------------------------------*- C++ -*----------------------------------*\
| =========                 |                                                 |
| \\      /  F ield         | OpenFOAM: The Open Source CFD Toolbox           |
|  \\    /   O peration     | Version:  2506                                  |
|   \\  /    A nd           | Website:  www.openfoam.com                      |
|    \\/     M anipulation  |                                                 |
\*---------------------------------------------------------------------------*/
FoamFile
{
    version     2.0;
    format      ascii;
    arch        "LSB;label=32;scalar=64";
    class       volScalarField;
    location    "60";
    object      epsilon;
}
// * * * * * * * * * * * * * * * * * * * * * * * * * * * * * * * * * * * * * //

dimensions      [0 2 -3 0 0 0 0];

internalField   nonuniform List<scalar> 
144676
(
0.116221
0.116222
0.116222
0.116222
0.116222
0.116222
0.116222
0.116222
0.116222
0.116222
0.116222
0.116222
0.116221
0.116221
0.116221
0.116221
0.116221
0.116221
0.116222
0.116222
0.116222
0.116222
0.116222
0.116222
0.116222
0.116222
0.116222
0.116222
0.116222
0.116221
0.047126
0.047126
0.0471261
0.0471262
0.0471263
0.0471264
0.0471265
0.0471266
0.0471268
0.0471269
0.047127
0.047127
0.0471271
0.0471272
0.0471272
0.0471272
0.0471272
0.0471271
0.047127
0.047127
0.0471269
0.0471268
0.0471266
0.0471265
0.0471264
0.0471263
0.0471262
0.0471261
0.047126
0.047126
0.0283364
0.0283364
0.0283364
0.0283365
0.0283365
0.0283366
0.0283367
0.0283368
0.0283369
0.0283369
0.028337
0.0283371
0.0283371
0.0283372
0.0283372
0.0283372
0.0283372
0.0283371
0.0283371
0.028337
0.0283369
0.0283369
0.0283368
0.0283367
0.0283366
0.0283365
0.0283365
0.0283364
0.0283364
0.0283364
0.0202977
0.0202976
0.0202977
0.0202977
0.0202977
0.0202978
0.0202979
0.0202979
0.020298
0.0202981
0.0202981
0.0202982
0.0202982
0.0202982
0.0202983
0.0202983
0.0202982
0.0202982
0.0202982
0.0202981
0.0202981
0.020298
0.0202979
0.0202979
0.0202978
0.0202977
0.0202977
0.0202977
0.0202976
0.0202977
0.0158296
0.0158296
0.0158296
0.0158296
0.0158297
0.0158297
0.0158298
0.0158298
0.0158299
0.01583
0.01583
0.0158301
0.0158301
0.0158301
0.0158301
0.0158301
0.0158301
0.0158301
0.0158301
0.01583
0.01583
0.0158299
0.0158298
0.0158298
0.0158297
0.0158297
0.0158296
0.0158296
0.0158296
0.0158296
0.0129787
0.0129787
0.0129787
0.0129788
0.0129788
0.0129789
0.0129789
0.012979
0.012979
0.012979
0.0129791
0.0129791
0.0129792
0.0129792
0.0129792
0.0129792
0.0129792
0.0129792
0.0129791
0.0129791
0.012979
0.012979
0.0129789
0.0129789
0.0129789
0.0129788
0.0129788
0.0129787
0.0129787
0.0129787
0.0109993
0.0109993
0.0109993
0.0109994
0.0109994
0.0109994
0.0109995
0.0109995
0.0109996
0.0109996
0.0109997
0.0109997
0.0109997
0.0109997
0.0109997
0.0109997
0.0109997
0.0109997
0.0109997
0.0109997
0.0109996
0.0109996
0.0109995
0.0109995
0.0109994
0.0109994
0.0109994
0.0109993
0.0109993
0.0109993
0.00954419
0.00954419
0.00954421
0.00954423
0.00954426
0.00954429
0.00954432
0.00954436
0.0095444
0.00954444
0.00954447
0.0095445
0.00954452
0.00954454
0.00954455
0.00954455
0.00954454
0.00954452
0.0095445
0.00954447
0.00954444
0.0095444
0.00954436
0.00954432
0.00954429
0.00954425
0.00954423
0.00954421
0.00954419
0.00954419
0.00842919
0.0084292
0.00842921
0.00842923
0.00842925
0.00842928
0.00842931
0.00842934
0.00842938
0.00842941
0.00842944
0.00842946
0.00842948
0.00842949
0.0084295
0.0084295
0.00842949
0.00842948
0.00842946
0.00842944
0.00842941
0.00842937
0.00842934
0.00842931
0.00842928
0.00842925
0.00842922
0.00842921
0.0084292
0.00842919
0.00754749
0.00754749
0.0075475
0.00754751
0.00754754
0.00754756
0.00754759
0.00754762
0.00754764
0.00754767
0.0075477
0.00754772
0.00754774
0.00754775
0.00754775
0.00754775
0.00754775
0.00754774
0.00754772
0.0075477
0.00754767
0.00754764
0.00754761
0.00754759
0.00754756
0.00754753
0.00754751
0.0075475
0.00754749
0.00754749
0.00683276
0.00683276
0.00683277
0.00683278
0.0068328
0.00683282
0.00683285
0.00683287
0.0068329
0.00683292
0.00683294
0.00683296
0.00683297
0.00683298
0.00683299
0.00683299
0.00683298
0.00683297
0.00683296
0.00683294
0.00683292
0.00683289
0.00683287
0.00683285
0.00683282
0.0068328
0.00683278
0.00683277
0.00683276
0.00683276
0.00624167
0.00624167
0.00624168
0.00624169
0.0062417
0.00624172
0.00624174
0.00624176
0.00624179
0.00624181
0.00624182
0.00624184
0.00624185
0.00624186
0.00624187
0.00624187
0.00624186
0.00624185
0.00624184
0.00624182
0.00624181
0.00624178
0.00624176
0.00624174
0.00624172
0.0062417
0.00624169
0.00624168
0.00624167
0.00624167
0.00574469
0.00574468
0.00574469
0.0057447
0.00574471
0.00574473
0.00574474
0.00574476
0.00574478
0.0057448
0.00574481
0.00574483
0.00574484
0.00574485
0.00574485
0.00574485
0.00574485
0.00574484
0.00574483
0.00574481
0.0057448
0.00574478
0.00574476
0.00574474
0.00574473
0.00574471
0.0057447
0.00574469
0.00574468
0.00574468
0.00532098
0.00532098
0.00532099
0.00532099
0.005321
0.00532102
0.00532103
0.00532105
0.00532106
0.00532108
0.00532109
0.0053211
0.00532111
0.00532112
0.00532112
0.00532112
0.00532112
0.00532111
0.0053211
0.00532109
0.00532108
0.00532106
0.00532105
0.00532103
0.00532102
0.005321
0.00532099
0.00532098
0.00532098
0.00532098
0.00495547
0.00495546
0.00495547
0.00495547
0.00495548
0.00495549
0.00495551
0.00495552
0.00495553
0.00495554
0.00495556
0.00495557
0.00495557
0.00495558
0.00495558
0.00495558
0.00495558
0.00495557
0.00495557
0.00495556
0.00495554
0.00495553
0.00495552
0.00495551
0.00495549
0.00495548
0.00495547
0.00495547
0.00495546
0.00495547
0.00463692
0.00463692
0.00463692
0.00463692
0.00463693
0.00463694
0.00463695
0.00463696
0.00463697
0.00463698
0.00463699
0.004637
0.00463701
0.00463701
0.00463701
0.00463701
0.00463701
0.00463701
0.004637
0.00463699
0.00463698
0.00463697
0.00463696
0.00463695
0.00463694
0.00463693
0.00463692
0.00463692
0.00463692
0.00463692
0.00435683
0.00435683
0.00435683
0.00435683
0.00435684
0.00435685
0.00435685
0.00435686
0.00435687
0.00435688
0.00435689
0.0043569
0.0043569
0.00435691
0.00435691
0.00435691
0.00435691
0.0043569
0.0043569
0.00435689
0.00435688
0.00435687
0.00435686
0.00435685
0.00435685
0.00435684
0.00435683
0.00435683
0.00435683
0.00435683
0.00410863
0.00410863
0.00410863
0.00410863
0.00410864
0.00410864
0.00410865
0.00410866
0.00410867
0.00410867
0.00410868
0.00410868
0.00410869
0.00410869
0.00410869
0.00410869
0.00410869
0.00410869
0.00410868
0.00410868
0.00410867
0.00410866
0.00410866
0.00410865
0.00410864
0.00410864
0.00410863
0.00410863
0.00410863
0.00410863
0.00388716
0.00388716
0.00388716
0.00388717
0.00388717
0.00388717
0.00388718
0.00388719
0.00388719
0.0038872
0.00388721
0.00388721
0.00388721
0.00388722
0.00388722
0.00388722
0.00388722
0.00388721
0.00388721
0.00388721
0.0038872
0.00388719
0.00388719
0.00388718
0.00388717
0.00388717
0.00388716
0.00388716
0.00388716
0.00388716
0.00368833
0.00368833
0.00368833
0.00368833
0.00368834
0.00368834
0.00368835
0.00368835
0.00368836
0.00368836
0.00368837
0.00368837
0.00368837
0.00368838
0.00368838
0.00368838
0.00368838
0.00368837
0.00368837
0.00368837
0.00368836
0.00368836
0.00368835
0.00368835
0.00368834
0.00368834
0.00368833
0.00368833
0.00368833
0.00368833
0.00350883
0.00350883
0.00350883
0.00350883
0.00350883
0.00350884
0.00350884
0.00350885
0.00350885
0.00350886
0.00350886
0.00350886
0.00350887
0.00350887
0.00350887
0.00350887
0.00350887
0.00350886
0.00350886
0.00350886
0.00350886
0.00350885
0.00350885
0.00350884
0.00350884
0.00350883
0.00350883
0.00350883
0.00350883
0.00350883
0.00334597
0.00334597
0.00334597
0.00334597
0.00334597
0.00334598
0.00334598
0.00334598
0.00334599
0.00334599
0.00334599
0.003346
0.003346
0.003346
0.003346
0.003346
0.003346
0.003346
0.003346
0.00334599
0.00334599
0.00334599
0.00334598
0.00334598
0.00334598
0.00334597
0.00334597
0.00334597
0.00334597
0.00334597
0.00319754
0.00319754
0.00319753
0.00319754
0.00319754
0.00319754
0.00319754
0.00319755
0.00319755
0.00319755
0.00319756
0.00319756
0.00319756
0.00319756
0.00319756
0.00319756
0.00319756
0.00319756
0.00319756
0.00319756
0.00319755
0.00319755
0.00319755
0.00319754
0.00319754
0.00319754
0.00319754
0.00319753
0.00319753
0.00319754
0.0030617
0.0030617
0.0030617
0.0030617
0.0030617
0.0030617
0.00306171
0.00306171
0.00306171
0.00306171
0.00306172
0.00306172
0.00306172
0.00306172
0.00306172
0.00306172
0.00306172
0.00306172
0.00306172
0.00306171
0.00306171
0.00306171
0.00306171
0.00306171
0.0030617
0.0030617
0.0030617
0.0030617
0.0030617
0.0030617
0.00293694
0.00293694
0.00293694
0.00293694
0.00293694
0.00293694
0.00293695
0.00293695
0.00293695
0.00293695
0.00293695
0.00293696
0.00293696
0.00293696
0.00293696
0.00293696
0.00293696
0.00293696
0.00293696
0.00293695
0.00293695
0.00293695
0.00293695
0.00293695
0.00293694
0.00293694
0.00293694
0.00293694
0.00293694
0.00293694
0.00282202
0.00282202
0.00282202
0.00282202
0.00282203
0.00282203
0.00282203
0.00282203
0.00282203
0.00282203
0.00282204
0.00282204
0.00282204
0.00282204
0.00282204
0.00282204
0.00282204
0.00282204
0.00282204
0.00282204
0.00282203
0.00282203
0.00282203
0.00282203
0.00282203
0.00282203
0.00282202
0.00282202
0.00282202
0.00282202
0.00271603
0.00271603
0.00271603
0.00271603
0.00271603
0.00271603
0.00271603
0.00271603
0.00271604
0.00271604
0.00271604
0.00271604
0.00271604
0.00271604
0.00271604
0.00271604
0.00271604
0.00271604
0.00271604
0.00271604
0.00271604
0.00271604
0.00271603
0.00271603
0.00271603
0.00271603
0.00271603
0.00271603
0.00271603
0.00271603
0.0026186
0.00261859
0.0026186
0.0026186
0.0026186
0.0026186
0.0026186
0.0026186
0.0026186
0.0026186
0.0026186
0.0026186
0.0026186
0.0026186
0.0026186
0.0026186
0.0026186
0.0026186
0.0026186
0.0026186
0.0026186
0.0026186
0.0026186
0.0026186
0.0026186
0.0026186
0.0026186
0.0026186
0.00261859
0.00261859
0.0025311
0.0025311
0.0025311
0.0025311
0.0025311
0.0025311
0.0025311
0.0025311
0.0025311
0.0025311
0.00253111
0.00253111
0.00253111
0.00253111
0.00253111
0.00253111
0.00253111
0.00253111
0.00253111
0.0025311
0.0025311
0.0025311
0.0025311
0.0025311
0.0025311
0.0025311
0.0025311
0.0025311
0.0025311
0.0025311
0.00246257
0.00246257
0.00246257
0.00246257
0.00246257
0.00246257
0.00246257
0.00246257
0.00246257
0.00246257
0.00246257
0.00246257
0.00246257
0.00246257
0.00246257
0.00246257
0.00246257
0.00246257
0.00246257
0.00246257
0.00246257
0.00246257
0.00246257
0.00246257
0.00246257
0.00246257
0.00246257
0.00246257
0.00246257
0.00246257
0.0963945
0.0963961
0.0963963
0.0963962
0.0963959
0.0963956
0.0963952
0.0963948
0.0963943
0.0963939
0.0963935
0.0963932
0.0963929
0.0963927
0.0963926
0.0963926
0.0963927
0.0963929
0.0963932
0.0963935
0.0963939
0.0963943
0.0963948
0.0963952
0.0963956
0.0963959
0.0963962
0.0963963
0.0963962
0.0963945
0.0468483
0.0468481
0.0468482
0.0468484
0.0468486
0.0468489
0.0468491
0.0468494
0.0468497
0.04685
0.0468503
0.0468505
0.0468507
0.0468508
0.0468509
0.0468509
0.0468508
0.0468507
0.0468505
0.0468503
0.04685
0.0468497
0.0468494
0.0468491
0.0468488
0.0468486
0.0468484
0.0468482
0.0468481
0.0468483
0.0283958
0.0283957
0.0283957
0.0283958
0.028396
0.0283961
0.0283963
0.0283966
0.0283968
0.028397
0.0283971
0.0283973
0.0283974
0.0283975
0.0283976
0.0283976
0.0283975
0.0283974
0.0283973
0.0283971
0.028397
0.0283968
0.0283965
0.0283963
0.0283961
0.028396
0.0283958
0.0283957
0.0283957
0.0283958
0.0202995
0.0202995
0.0202995
0.0202996
0.0202997
0.0202998
0.0203
0.0203001
0.0203003
0.0203004
0.0203006
0.0203007
0.0203008
0.0203009
0.0203009
0.0203009
0.0203009
0.0203008
0.0203007
0.0203006
0.0203004
0.0203003
0.0203001
0.0203
0.0202998
0.0202997
0.0202996
0.0202995
0.0202994
0.0202995
0.0158168
0.0158168
0.0158168
0.0158169
0.015817
0.0158171
0.0158172
0.0158174
0.0158175
0.0158176
0.0158177
0.0158178
0.0158179
0.015818
0.015818
0.015818
0.015818
0.0158179
0.0158178
0.0158177
0.0158176
0.0158175
0.0158174
0.0158172
0.0158171
0.015817
0.0158169
0.0158168
0.0158168
0.0158168
0.0129657
0.0129657
0.0129658
0.0129658
0.0129659
0.012966
0.0129661
0.0129662
0.0129664
0.0129665
0.0129666
0.0129667
0.0129667
0.0129668
0.0129668
0.0129668
0.0129668
0.0129667
0.0129667
0.0129666
0.0129665
0.0129663
0.0129662
0.0129661
0.012966
0.0129659
0.0129658
0.0129658
0.0129657
0.0129657
0.0109887
0.0109887
0.0109887
0.0109888
0.0109888
0.0109889
0.010989
0.0109891
0.0109892
0.0109893
0.0109894
0.0109895
0.0109895
0.0109896
0.0109896
0.0109896
0.0109896
0.0109895
0.0109895
0.0109894
0.0109893
0.0109892
0.0109891
0.010989
0.0109889
0.0109888
0.0109888
0.0109887
0.0109887
0.0109887
0.00953584
0.00953584
0.00953587
0.00953592
0.00953598
0.00953605
0.00953613
0.00953622
0.00953631
0.00953639
0.00953647
0.00953653
0.00953658
0.00953662
0.00953664
0.00953664
0.00953662
0.00953658
0.00953653
0.00953646
0.00953639
0.0095363
0.00953622
0.00953613
0.00953605
0.00953598
0.00953591
0.00953587
0.00953584
0.00953584
0.00842268
0.00842268
0.0084227
0.00842274
0.0084228
0.00842286
0.00842293
0.008423
0.00842308
0.00842315
0.00842322
0.00842328
0.00842332
0.00842335
0.00842337
0.00842337
0.00842335
0.00842332
0.00842327
0.00842322
0.00842315
0.00842308
0.008423
0.00842293
0.00842286
0.00842279
0.00842274
0.0084227
0.00842268
0.00842267
0.00754235
0.00754236
0.00754238
0.00754241
0.00754246
0.00754251
0.00754257
0.00754264
0.0075427
0.00754276
0.00754282
0.00754287
0.00754291
0.00754294
0.00754295
0.00754295
0.00754294
0.00754291
0.00754287
0.00754282
0.00754276
0.0075427
0.00754264
0.00754257
0.00754251
0.00754245
0.00754241
0.00754237
0.00754235
0.00754235
0.00682866
0.00682866
0.00682868
0.00682871
0.00682875
0.0068288
0.00682885
0.0068289
0.00682896
0.00682901
0.00682906
0.00682911
0.00682914
0.00682916
0.00682918
0.00682918
0.00682916
0.00682914
0.00682911
0.00682906
0.00682901
0.00682896
0.0068289
0.00682885
0.00682879
0.00682875
0.00682871
0.00682868
0.00682866
0.00682866
0.00623835
0.00623835
0.00623836
0.00623838
0.00623842
0.00623846
0.0062385
0.00623855
0.0062386
0.00623864
0.00623869
0.00623872
0.00623875
0.00623877
0.00623878
0.00623878
0.00623877
0.00623875
0.00623872
0.00623869
0.00623864
0.0062386
0.00623855
0.0062385
0.00623846
0.00623841
0.00623838
0.00623836
0.00623834
0.00623834
0.00574194
0.00574194
0.00574195
0.00574197
0.005742
0.00574203
0.00574207
0.00574211
0.00574215
0.00574219
0.00574223
0.00574226
0.00574228
0.0057423
0.00574231
0.00574231
0.0057423
0.00574228
0.00574226
0.00574223
0.00574219
0.00574215
0.00574211
0.00574207
0.00574203
0.005742
0.00574197
0.00574195
0.00574194
0.00574194
0.00531868
0.00531867
0.00531868
0.0053187
0.00531872
0.00531875
0.00531878
0.00531882
0.00531885
0.00531889
0.00531892
0.00531894
0.00531896
0.00531898
0.00531899
0.00531899
0.00531898
0.00531896
0.00531894
0.00531892
0.00531888
0.00531885
0.00531882
0.00531878
0.00531875
0.00531872
0.00531869
0.00531868
0.00531867
0.00531867
0.00495349
0.00495349
0.00495349
0.0049535
0.00495352
0.00495355
0.00495358
0.00495361
0.00495364
0.00495366
0.00495369
0.00495371
0.00495373
0.00495374
0.00495375
0.00495375
0.00495374
0.00495373
0.00495371
0.00495369
0.00495366
0.00495363
0.0049536
0.00495357
0.00495355
0.00495352
0.0049535
0.00495349
0.00495348
0.00495349
0.00463519
0.00463519
0.00463519
0.0046352
0.00463522
0.00463524
0.00463526
0.00463528
0.00463531
0.00463533
0.00463536
0.00463537
0.00463539
0.0046354
0.0046354
0.0046354
0.0046354
0.00463539
0.00463537
0.00463535
0.00463533
0.00463531
0.00463528
0.00463526
0.00463523
0.00463521
0.0046352
0.00463519
0.00463518
0.00463519
0.00435529
0.00435528
0.00435529
0.00435529
0.00435531
0.00435532
0.00435534
0.00435536
0.00435539
0.00435541
0.00435542
0.00435544
0.00435545
0.00435546
0.00435546
0.00435546
0.00435546
0.00435545
0.00435544
0.00435542
0.0043554
0.00435538
0.00435536
0.00435534
0.00435532
0.00435531
0.00435529
0.00435528
0.00435528
0.00435529
0.00410723
0.00410722
0.00410722
0.00410723
0.00410724
0.00410725
0.00410727
0.00410729
0.00410731
0.00410732
0.00410734
0.00410735
0.00410736
0.00410737
0.00410737
0.00410737
0.00410737
0.00410736
0.00410735
0.00410734
0.00410732
0.0041073
0.00410729
0.00410727
0.00410725
0.00410724
0.00410723
0.00410722
0.00410722
0.00410722
0.00388586
0.00388586
0.00388586
0.00388586
0.00388587
0.00388588
0.0038859
0.00388591
0.00388592
0.00388594
0.00388595
0.00388596
0.00388597
0.00388598
0.00388598
0.00388598
0.00388598
0.00388597
0.00388596
0.00388595
0.00388594
0.00388592
0.00388591
0.00388589
0.00388588
0.00388587
0.00388586
0.00388585
0.00388585
0.00388586
0.0036871
0.00368709
0.00368709
0.0036871
0.0036871
0.00368711
0.00368713
0.00368714
0.00368715
0.00368716
0.00368717
0.00368718
0.00368719
0.00368719
0.0036872
0.0036872
0.00368719
0.00368719
0.00368718
0.00368717
0.00368716
0.00368715
0.00368714
0.00368712
0.00368711
0.0036871
0.00368709
0.00368709
0.00368709
0.0036871
0.00350764
0.00350764
0.00350764
0.00350764
0.00350765
0.00350765
0.00350766
0.00350767
0.00350768
0.00350769
0.0035077
0.00350771
0.00350772
0.00350772
0.00350772
0.00350772
0.00350772
0.00350772
0.00350771
0.0035077
0.00350769
0.00350768
0.00350767
0.00350766
0.00350765
0.00350764
0.00350764
0.00350763
0.00350764
0.00350764
0.00334481
0.00334481
0.0033448
0.00334481
0.00334481
0.00334482
0.00334483
0.00334484
0.00334485
0.00334485
0.00334486
0.00334487
0.00334487
0.00334488
0.00334488
0.00334488
0.00334488
0.00334487
0.00334487
0.00334486
0.00334485
0.00334485
0.00334484
0.00334483
0.00334482
0.00334481
0.00334481
0.0033448
0.0033448
0.00334481
0.0031964
0.0031964
0.0031964
0.0031964
0.00319641
0.00319641
0.00319642
0.00319643
0.00319643
0.00319644
0.00319645
0.00319645
0.00319646
0.00319646
0.00319646
0.00319646
0.00319646
0.00319646
0.00319645
0.00319645
0.00319644
0.00319643
0.00319643
0.00319642
0.00319641
0.0031964
0.0031964
0.0031964
0.0031964
0.0031964
0.00306062
0.00306061
0.00306061
0.00306062
0.00306062
0.00306063
0.00306063
0.00306064
0.00306065
0.00306065
0.00306066
0.00306066
0.00306066
0.00306067
0.00306067
0.00306067
0.00306067
0.00306066
0.00306066
0.00306066
0.00306065
0.00306065
0.00306064
0.00306063
0.00306063
0.00306062
0.00306061
0.00306061
0.00306061
0.00306061
0.00293599
0.00293599
0.00293599
0.00293599
0.002936
0.002936
0.00293601
0.00293601
0.00293602
0.00293602
0.00293603
0.00293603
0.00293603
0.00293604
0.00293604
0.00293604
0.00293604
0.00293603
0.00293603
0.00293603
0.00293602
0.00293602
0.00293601
0.00293601
0.002936
0.002936
0.00293599
0.00293599
0.00293599
0.00293599
0.00282144
0.00282144
0.00282144
0.00282144
0.00282144
0.00282145
0.00282145
0.00282146
0.00282146
0.00282147
0.00282147
0.00282147
0.00282148
0.00282148
0.00282148
0.00282148
0.00282148
0.00282148
0.00282147
0.00282147
0.00282147
0.00282146
0.00282146
0.00282145
0.00282145
0.00282144
0.00282144
0.00282144
0.00282144
0.00282144
0.00271641
0.00271641
0.00271641
0.00271642
0.00271642
0.00271642
0.00271643
0.00271643
0.00271643
0.00271644
0.00271644
0.00271644
0.00271644
0.00271644
0.00271644
0.00271644
0.00271644
0.00271644
0.00271644
0.00271644
0.00271644
0.00271643
0.00271643
0.00271643
0.00271642
0.00271642
0.00271641
0.00271641
0.00271641
0.00271641
0.00262153
0.00262153
0.00262153
0.00262154
0.00262154
0.00262154
0.00262154
0.00262155
0.00262155
0.00262155
0.00262155
0.00262155
0.00262156
0.00262156
0.00262156
0.00262156
0.00262156
0.00262156
0.00262155
0.00262155
0.00262155
0.00262155
0.00262155
0.00262154
0.00262154
0.00262154
0.00262154
0.00262153
0.00262153
0.00262153
0.00254049
0.00254049
0.00254049
0.00254049
0.00254049
0.00254049
0.00254049
0.00254049
0.00254049
0.0025405
0.0025405
0.0025405
0.0025405
0.0025405
0.0025405
0.0025405
0.0025405
0.0025405
0.0025405
0.0025405
0.0025405
0.00254049
0.00254049
0.00254049
0.00254049
0.00254049
0.00254049
0.00254049
0.00254048
0.00254049
0.00248537
0.00248537
0.00248537
0.00248537
0.00248537
0.00248538
0.00248538
0.00248538
0.00248538
0.00248538
0.00248538
0.00248538
0.00248538
0.00248538
0.00248538
0.00248538
0.00248538
0.00248538
0.00248538
0.00248538
0.00248538
0.00248538
0.00248538
0.00248538
0.00248538
0.00248537
0.00248537
0.00248537
0.00248537
0.00248537
0.0825733
0.0825743
0.0825744
0.082574
0.0825734
0.0825726
0.0825716
0.0825706
0.0825696
0.0825686
0.0825676
0.0825668
0.0825662
0.0825657
0.0825655
0.0825655
0.0825657
0.0825662
0.0825668
0.0825676
0.0825686
0.0825696
0.0825706
0.0825716
0.0825726
0.0825734
0.082574
0.0825744
0.0825743
0.0825733
0.0460602
0.0460595
0.0460596
0.0460599
0.0460604
0.0460609
0.0460614
0.046062
0.0460626
0.0460632
0.0460637
0.0460642
0.0460645
0.0460648
0.0460649
0.0460649
0.0460648
0.0460645
0.0460641
0.0460637
0.0460632
0.0460626
0.046062
0.0460614
0.0460608
0.0460603
0.0460599
0.0460596
0.0460595
0.0460602
0.0284096
0.0284094
0.0284094
0.0284096
0.0284099
0.0284102
0.0284106
0.028411
0.0284114
0.0284118
0.0284122
0.0284125
0.0284128
0.028413
0.0284131
0.028413
0.028413
0.0284128
0.0284125
0.0284122
0.0284118
0.0284114
0.028411
0.0284106
0.0284102
0.0284099
0.0284096
0.0284094
0.0284093
0.0284096
0.0203084
0.0203083
0.0203084
0.0203085
0.0203087
0.020309
0.0203093
0.0203096
0.0203099
0.0203102
0.0203105
0.0203107
0.0203109
0.020311
0.0203111
0.0203111
0.020311
0.0203109
0.0203107
0.0203105
0.0203102
0.0203099
0.0203096
0.0203093
0.020309
0.0203087
0.0203085
0.0203084
0.0203083
0.0203083
0.0158103
0.0158103
0.0158104
0.0158105
0.0158107
0.0158109
0.0158111
0.0158114
0.0158116
0.0158119
0.0158121
0.0158123
0.0158124
0.0158125
0.0158126
0.0158126
0.0158125
0.0158124
0.0158123
0.0158121
0.0158119
0.0158116
0.0158114
0.0158111
0.0158109
0.0158107
0.0158105
0.0158104
0.0158103
0.0158103
0.0129562
0.0129562
0.0129562
0.0129563
0.0129565
0.0129566
0.0129568
0.012957
0.0129573
0.0129575
0.0129576
0.0129578
0.0129579
0.012958
0.0129581
0.0129581
0.012958
0.0129579
0.0129578
0.0129576
0.0129575
0.0129573
0.012957
0.0129568
0.0129566
0.0129565
0.0129563
0.0129562
0.0129561
0.0129561
0.0109798
0.0109798
0.0109799
0.01098
0.0109801
0.0109803
0.0109804
0.0109806
0.0109808
0.010981
0.0109811
0.0109813
0.0109814
0.0109814
0.0109815
0.0109815
0.0109814
0.0109814
0.0109813
0.0109811
0.010981
0.0109808
0.0109806
0.0109804
0.0109803
0.0109801
0.01098
0.0109799
0.0109798
0.0109798
0.00952853
0.00952854
0.00952859
0.00952867
0.00952877
0.0095289
0.00952905
0.0095292
0.00952935
0.0095295
0.00952964
0.00952975
0.00952985
0.00952991
0.00952995
0.00952995
0.00952991
0.00952985
0.00952975
0.00952963
0.0095295
0.00952935
0.00952919
0.00952904
0.0095289
0.00952877
0.00952866
0.00952858
0.00952854
0.00952853
0.0084168
0.00841681
0.00841685
0.00841692
0.00841701
0.00841712
0.00841724
0.00841737
0.00841751
0.00841763
0.00841775
0.00841785
0.00841793
0.00841799
0.00841802
0.00841802
0.00841799
0.00841793
0.00841785
0.00841775
0.00841763
0.0084175
0.00841737
0.00841724
0.00841712
0.008417
0.00841691
0.00841684
0.00841681
0.0084168
0.00753765
0.00753766
0.00753769
0.00753774
0.00753782
0.00753792
0.00753802
0.00753814
0.00753825
0.00753836
0.00753846
0.00753855
0.00753861
0.00753866
0.00753869
0.00753869
0.00753866
0.00753861
0.00753855
0.00753846
0.00753836
0.00753825
0.00753813
0.00753802
0.00753791
0.00753782
0.00753774
0.00753768
0.00753765
0.00753764
0.00682487
0.00682487
0.0068249
0.00682494
0.00682501
0.00682509
0.00682518
0.00682528
0.00682538
0.00682547
0.00682556
0.00682563
0.00682569
0.00682573
0.00682575
0.00682575
0.00682573
0.00682569
0.00682563
0.00682555
0.00682547
0.00682537
0.00682528
0.00682518
0.00682509
0.00682501
0.00682494
0.00682489
0.00682487
0.00682486
0.00623525
0.00623525
0.00623527
0.00623531
0.00623536
0.00623543
0.00623551
0.00623559
0.00623568
0.00623576
0.00623583
0.00623589
0.00623594
0.00623598
0.006236
0.00623599
0.00623598
0.00623594
0.00623589
0.00623583
0.00623575
0.00623567
0.00623559
0.00623551
0.00623543
0.00623536
0.0062353
0.00623526
0.00623525
0.00623524
0.00573937
0.00573937
0.00573939
0.00573942
0.00573947
0.00573953
0.00573959
0.00573966
0.00573973
0.0057398
0.00573986
0.00573992
0.00573996
0.00573999
0.00574
0.00574
0.00573999
0.00573996
0.00573991
0.00573986
0.0057398
0.00573973
0.00573966
0.00573959
0.00573952
0.00573946
0.00573942
0.00573938
0.00573937
0.00573937
0.00531652
0.00531651
0.00531652
0.00531655
0.00531659
0.00531664
0.00531669
0.00531675
0.00531681
0.00531687
0.00531692
0.00531697
0.005317
0.00531703
0.00531704
0.00531704
0.00531703
0.005317
0.00531697
0.00531692
0.00531687
0.00531681
0.00531675
0.00531669
0.00531663
0.00531659
0.00531655
0.00531652
0.00531651
0.00531651
0.00495164
0.00495164
0.00495164
0.00495166
0.00495169
0.00495174
0.00495178
0.00495183
0.00495188
0.00495193
0.00495198
0.00495201
0.00495204
0.00495206
0.00495208
0.00495208
0.00495206
0.00495204
0.00495201
0.00495197
0.00495193
0.00495188
0.00495183
0.00495178
0.00495173
0.00495169
0.00495166
0.00495164
0.00495163
0.00495164
0.00463358
0.00463357
0.00463357
0.00463359
0.00463362
0.00463365
0.00463369
0.00463373
0.00463378
0.00463382
0.00463385
0.00463388
0.00463391
0.00463393
0.00463394
0.00463394
0.00463393
0.00463391
0.00463388
0.00463385
0.00463381
0.00463377
0.00463373
0.00463369
0.00463365
0.00463361
0.00463359
0.00463357
0.00463357
0.00463357
0.00435385
0.00435385
0.00435385
0.00435386
0.00435388
0.00435391
0.00435394
0.00435398
0.00435402
0.00435405
0.00435408
0.00435411
0.00435413
0.00435414
0.00435415
0.00435415
0.00435414
0.00435413
0.00435411
0.00435408
0.00435405
0.00435401
0.00435398
0.00435394
0.00435391
0.00435388
0.00435386
0.00435385
0.00435384
0.00435385
0.00410593
0.00410592
0.00410592
0.00410593
0.00410595
0.00410597
0.004106
0.00410603
0.00410606
0.00410609
0.00410611
0.00410613
0.00410615
0.00410616
0.00410617
0.00410617
0.00410616
0.00410615
0.00410613
0.00410611
0.00410609
0.00410606
0.00410603
0.004106
0.00410597
0.00410594
0.00410593
0.00410592
0.00410592
0.00410592
0.00388466
0.00388465
0.00388465
0.00388466
0.00388468
0.0038847
0.00388472
0.00388474
0.00388477
0.00388479
0.00388481
0.00388483
0.00388485
0.00388486
0.00388486
0.00388486
0.00388486
0.00388485
0.00388483
0.00388481
0.00388479
0.00388477
0.00388474
0.00388472
0.00388469
0.00388467
0.00388466
0.00388465
0.00388465
0.00388466
0.00368597
0.00368597
0.00368597
0.00368597
0.00368598
0.003686
0.00368602
0.00368604
0.00368606
0.00368608
0.0036861
0.00368612
0.00368613
0.00368614
0.00368614
0.00368614
0.00368614
0.00368613
0.00368612
0.0036861
0.00368608
0.00368606
0.00368604
0.00368602
0.003686
0.00368598
0.00368597
0.00368596
0.00368596
0.00368597
0.00350657
0.00350657
0.00350657
0.00350657
0.00350658
0.0035066
0.00350662
0.00350664
0.00350665
0.00350667
0.00350668
0.0035067
0.00350671
0.00350671
0.00350672
0.00350672
0.00350671
0.00350671
0.0035067
0.00350668
0.00350667
0.00350665
0.00350663
0.00350662
0.0035066
0.00350658
0.00350657
0.00350657
0.00350657
0.00350657
0.0033438
0.00334379
0.00334379
0.0033438
0.00334381
0.00334382
0.00334384
0.00334385
0.00334387
0.00334388
0.00334389
0.0033439
0.00334391
0.00334392
0.00334392
0.00334392
0.00334392
0.00334391
0.0033439
0.00334389
0.00334388
0.00334387
0.00334385
0.00334383
0.00334382
0.00334381
0.0033438
0.00334379
0.00334379
0.00334379
0.00319546
0.00319546
0.00319546
0.00319546
0.00319547
0.00319548
0.0031955
0.00319551
0.00319552
0.00319554
0.00319555
0.00319555
0.00319556
0.00319557
0.00319557
0.00319557
0.00319557
0.00319556
0.00319555
0.00319555
0.00319553
0.00319552
0.00319551
0.0031955
0.00319548
0.00319547
0.00319546
0.00319545
0.00319546
0.00319546
0.0030598
0.00305979
0.0030598
0.0030598
0.00305981
0.00305982
0.00305983
0.00305984
0.00305986
0.00305987
0.00305987
0.00305988
0.00305989
0.00305989
0.00305989
0.00305989
0.00305989
0.00305989
0.00305988
0.00305987
0.00305987
0.00305985
0.00305984
0.00305983
0.00305982
0.00305981
0.0030598
0.00305979
0.00305979
0.00305979
0.00293543
0.00293543
0.00293543
0.00293544
0.00293545
0.00293546
0.00293547
0.00293548
0.00293549
0.0029355
0.0029355
0.00293551
0.00293551
0.00293552
0.00293552
0.00293552
0.00293552
0.00293551
0.00293551
0.0029355
0.00293549
0.00293549
0.00293548
0.00293547
0.00293545
0.00293544
0.00293544
0.00293543
0.00293543
0.00293543
0.00282146
0.00282146
0.00282146
0.00282147
0.00282148
0.00282149
0.0028215
0.00282151
0.00282151
0.00282152
0.00282153
0.00282153
0.00282153
0.00282154
0.00282154
0.00282154
0.00282154
0.00282153
0.00282153
0.00282153
0.00282152
0.00282151
0.00282151
0.0028215
0.00282149
0.00282148
0.00282147
0.00282146
0.00282146
0.00282146
0.00271777
0.00271777
0.00271777
0.00271778
0.00271779
0.00271779
0.0027178
0.00271781
0.00271781
0.00271782
0.00271782
0.00271783
0.00271783
0.00271783
0.00271783
0.00271783
0.00271783
0.00271783
0.00271783
0.00271782
0.00271782
0.00271781
0.00271781
0.0027178
0.00271779
0.00271778
0.00271778
0.00271777
0.00271777
0.00271777
0.00262584
0.00262584
0.00262584
0.00262585
0.00262585
0.00262586
0.00262587
0.00262587
0.00262588
0.00262588
0.00262588
0.00262588
0.00262589
0.00262589
0.00262589
0.00262589
0.00262589
0.00262589
0.00262588
0.00262588
0.00262588
0.00262587
0.00262587
0.00262587
0.00262586
0.00262585
0.00262585
0.00262584
0.00262584
0.00262584
0.00255064
0.00255064
0.00255065
0.00255065
0.00255065
0.00255066
0.00255066
0.00255066
0.00255067
0.00255067
0.00255067
0.00255067
0.00255067
0.00255067
0.00255067
0.00255067
0.00255067
0.00255067
0.00255067
0.00255067
0.00255067
0.00255066
0.00255066
0.00255066
0.00255066
0.00255065
0.00255065
0.00255065
0.00255064
0.00255064
0.00250384
0.00250384
0.00250384
0.00250384
0.00250384
0.00250385
0.00250385
0.00250385
0.00250385
0.00250385
0.00250385
0.00250385
0.00250385
0.00250385
0.00250385
0.00250385
0.00250385
0.00250385
0.00250385
0.00250385
0.00250385
0.00250385
0.00250385
0.00250385
0.00250385
0.00250384
0.00250384
0.00250384
0.00250384
0.00250384
0.0726688
0.0726689
0.0726688
0.072668
0.0726669
0.0726654
0.0726637
0.0726619
0.0726601
0.0726583
0.0726566
0.0726552
0.072654
0.0726532
0.0726528
0.0726528
0.0726532
0.072654
0.0726552
0.0726566
0.0726583
0.0726601
0.0726619
0.0726637
0.0726654
0.0726669
0.0726681
0.0726688
0.0726689
0.0726688
0.0449679
0.0449672
0.0449673
0.0449679
0.0449686
0.0449694
0.0449704
0.0449714