/*--------------------------------*- C++ -*----------------------------------*\
| =========                 |                                                 |
| \\      /  F ield         | OpenFOAM: The Open Source CFD Toolbox           |
|  \\    /   O peration     | Version:  2506                                  |
|   \\  /    A nd           | Website:  www.openfoam.com                      |
|    \\/     M anipulation  |                                                 |
\*---------------------------------------------------------------------------*/
FoamFile
{
    version     2.0;
    format      ascii;
    arch        "LSB;label=32;scalar=64";
    class       volScalarField;
    location    "60";
    object      p;
}
// * * * * * * * * * * * * * * * * * * * * * * * * * * * * * * * * * * * * * //

dimensions      [0 2 -2 0 0 0 0];

internalField   nonuniform List<scalar> 
144676
(
-0.0724321
-0.0721495
-0.071721
-0.0711226
-0.0703746
-0.0695036
-0.0685446
-0.0675375
-0.0665253
-0.0655524
-0.0646622
-0.0638948
-0.0632855
-0.0628625
-0.0626457
-0.0626454
-0.0628613
-0.0632833
-0.0638917
-0.0646585
-0.0655485
-0.0665212
-0.0675335
-0.0685411
-0.0695008
-0.0703728
-0.071122
-0.0717215
-0.0721508
-0.0724335
-0.0562842
-0.0558381
-0.0553934
-0.0547917
-0.0540441
-0.0531749
-0.0522179
-0.0512128
-0.0502027
-0.0492319
-0.0483435
-0.0475777
-0.0469697
-0.0465477
-0.0463315
-0.0463312
-0.0465465
-0.0469676
-0.0475748
-0.04834
-0.049228
-0.0501985
-0.0512085
-0.0522137
-0.0531713
-0.0540416
-0.0547905
-0.0553935
-0.055839
-0.0562854
-0.0186286
-0.0184274
-0.0180248
-0.0174414
-0.0167057
-0.0158468
-0.0148999
-0.013905
-0.0129051
-0.011944
-0.0110646
-0.0103067
-0.00970498
-0.00928751
-0.00907369
-0.00907334
-0.00928642
-0.00970307
-0.010304
-0.0110612
-0.0119401
-0.0129006
-0.0139001
-0.0148948
-0.015842
-0.0167017
-0.0174386
-0.0180231
-0.0184267
-0.0186284
0.0087438
0.00905672
0.00946674
0.0100424
0.0107653
0.0116085
0.0125379
0.0135144
0.0144958
0.015439
0.016302
0.0170457
0.0176359
0.0180453
0.018255
0.0182554
0.0180464
0.0176376
0.0170481
0.0163051
0.0154429
0.0145004
0.0135198
0.012544
0.0116147
0.0107711
0.0100474
0.0094707
0.00905964
0.00874599
0.0314921
0.0317654
0.0321572
0.0327143
0.0334162
0.0342357
0.0351392
0.0360886
0.0370428
0.0379598
0.0387987
0.0395215
0.040095
0.0404928
0.0406965
0.0406969
0.0404939
0.0400967
0.0395237
0.0388016
0.0379636
0.0370476
0.0360946
0.0351462
0.0342432
0.0334238
0.0327215
0.0321635
0.0317708
0.0314969
0.0502815
0.0505354
0.0509115
0.0514476
0.0521233
0.0529124
0.0537824
0.0546966
0.0556155
0.0564986
0.0573064
0.0580023
0.0585543
0.0589372
0.0591333
0.0591337
0.0589382
0.0585558
0.0580042
0.0573091
0.0565024
0.0556208
0.0547034
0.0537905
0.0529213
0.0521326
0.0514568
0.0509201
0.0505435
0.0502892
0.0660499
0.0662816
0.0666384
0.0671488
0.0677929
0.0685453
0.069375
0.0702469
0.0711233
0.0719657
0.0727361
0.0733997
0.073926
0.074291
0.074478
0.0744783
0.0742918
0.0739271
0.0734011
0.0727383
0.0719694
0.0711291
0.0702546
0.0693843
0.0685557
0.0678039
0.0671598
0.0666492
0.0662923
0.0660605
0.0794079
0.0796195
0.0799553
0.080437
0.0810453
0.0817559
0.0825396
0.0833633
0.0841913
0.0849871
0.0857149
0.0863416
0.0868386
0.0871832
0.0873597
0.0873598
0.0871835
0.0868389
0.0863422
0.0857166
0.0849908
0.0841977
0.0833722
0.0825503
0.0817678
0.0810578
0.0804497
0.0799682
0.0796326
0.0794209
0.0908393
0.0910318
0.0913451
0.0917957
0.0923648
0.0930298
0.0937632
0.0945339
0.0953087
0.0960532
0.0967341
0.0973202
0.097785
0.0981072
0.0982721
0.098272
0.098107
0.0977847
0.0973203
0.0967355
0.0960572
0.0953158
0.0945438
0.093775
0.0930428
0.0923785
0.0918098
0.0913597
0.091047
0.0908544
0.100717
0.100891
0.101181
0.101599
0.102126
0.102743
0.103423
0.104137
0.104855
0.105545
0.106176
0.106719
0.107149
0.107448
0.1076
0.1076
0.107447
0.107149
0.106719
0.106178
0.10555
0.104863
0.104148
0.103435
0.102757
0.102141
0.101614
0.101197
0.100908
0.100734
0.10934
0.109497
0.109763
0.110147
0.110631
0.111197
0.111821
0.112477
0.113136
0.11377
0.114349
0.114847
0.115242
0.115516
0.115656
0.115656
0.115516
0.115243
0.114849
0.114352
0.113776
0.113146
0.112489
0.111835
0.111212
0.110646
0.110162
0.10978
0.109515
0.109358
0.116956
0.117097
0.117339
0.117687
0.118128
0.118643
0.119211
0.119807
0.120407
0.120983
0.121509
0.121963
0.122322
0.122571
0.122699
0.122699
0.122572
0.122324
0.121966
0.121514
0.12099
0.120417
0.11982
0.119225
0.118659
0.118144
0.117703
0.117355
0.117114
0.116973
0.123775
0.1239
0.124117
0.124431
0.124828
0.125293
0.125804
0.126342
0.126882
0.127402
0.127876
0.128284
0.128609
0.128833
0.128948
0.128949
0.128835
0.128611
0.128289
0.127882
0.12741
0.126893
0.126356
0.12582
0.125309
0.124845
0.124448
0.124134
0.123916
0.123791
0.129977
0.130088
0.130281
0.130561
0.130916
0.13133
0.131787
0.132268
0.132751
0.133214
0.133638
0.134003
0.134293
0.134494
0.134597
0.134597
0.134496
0.134297
0.134009
0.133646
0.133224
0.132764
0.132284
0.131805
0.131349
0.130934
0.130579
0.130298
0.130104
0.129994
0.135727
0.135822
0.135993
0.136241
0.136555
0.136921
0.137326
0.137751
0.138178
0.138589
0.138964
0.139288
0.139544
0.139723
0.139814
0.139815
0.139726
0.13955
0.139296
0.138975
0.138602
0.138194
0.137769
0.137346
0.136942
0.136575
0.13626
0.136012
0.13584
0.135744
0.14117
0.141253
0.141402
0.141619
0.141894
0.142215
0.14257
0.142943
0.143318
0.143679
0.144009
0.144293
0.144518
0.144675
0.144756
0.144757
0.144679
0.144525
0.144302
0.144021
0.143694
0.143336
0.142963
0.142592
0.142239
0.141917
0.141641
0.141423
0.141273
0.141191
0.146448
0.146518
0.146647
0.146835
0.147074
0.147353
0.147662
0.147987
0.148314
0.148627
0.148914
0.149162
0.149358
0.149495
0.149565
0.149567
0.149499
0.149366
0.149173
0.148928
0.148644
0.148333
0.148009
0.147686
0.147379
0.1471
0.146861
0.146672
0.146542
0.146474
0.151697
0.151754
0.151865
0.152027
0.152233
0.152473
0.152739
0.153019
0.153301
0.153572
0.153819
0.154033
0.154202
0.154321
0.154382
0.154384
0.154326
0.154211
0.154045
0.153835
0.153589
0.153321
0.153042
0.152765
0.152501
0.152261
0.152056
0.151894
0.151784
0.151728
0.157054
0.1571
0.157194
0.157332
0.157508
0.157713
0.15794
0.158179
0.158419
0.158651
0.158862
0.159045
0.159191
0.159293
0.159345
0.159347
0.159298
0.159201
0.159059
0.158879
0.158669
0.15844
0.158202
0.157966
0.157741
0.157537
0.157364
0.157228
0.157135
0.157091
0.162669
0.162704
0.162783
0.162899
0.163046
0.163219
0.163411
0.163613
0.163817
0.164013
0.164193
0.164348
0.164472
0.164559
0.164604
0.164606
0.164565
0.164482
0.164362
0.164209
0.164031
0.163838
0.163637
0.163437
0.163248
0.163078
0.162933
0.162819
0.162743
0.162709
0.16871
0.168734
0.168798
0.168894
0.169016
0.169161
0.169321
0.16949
0.169661
0.169826
0.169978
0.170108
0.170213
0.170286
0.170325
0.170327
0.170292
0.170223
0.170121
0.169993
0.169844
0.169682
0.169515
0.169348
0.169191
0.16905
0.168931
0.168838
0.168776
0.168753
0.175382
0.175393
0.175444
0.175522
0.175622
0.175741
0.175873
0.176014
0.176156
0.176293
0.176419
0.176528
0.176615
0.176677
0.17671
0.176712
0.176684
0.176626
0.176541
0.176434
0.176311
0.176177
0.176039
0.175902
0.175773
0.175657
0.175561
0.175486
0.175438
0.175427
0.18295
0.182947
0.182986
0.183048
0.183128
0.183223
0.183331
0.183445
0.183562
0.183675
0.183779
0.18387
0.183943
0.183994
0.184022
0.184024
0.184001
0.183953
0.183884
0.183796
0.183694
0.183585
0.183472
0.183361
0.183257
0.183164
0.183088
0.183029
0.182993
0.182996
0.191777
0.191759
0.191786
0.191832
0.191893
0.191968
0.192054
0.192147
0.192241
0.192334
0.192419
0.192494
0.192554
0.192597
0.19262
0.192623
0.192604
0.192565
0.192508
0.192436
0.192354
0.192266
0.192176
0.192087
0.192005
0.191933
0.191874
0.19183
0.191806
0.191825
0.202383
0.202344
0.20236
0.202392
0.202437
0.202494
0.202561
0.202634
0.20271
0.202784
0.202854
0.202915
0.202965
0.203001
0.203021
0.203023
0.203009
0.202977
0.202931
0.202872
0.202806
0.202736
0.202665
0.202596
0.202534
0.20248
0.202436
0.202407
0.202393
0.202432
0.215527
0.215462
0.215468
0.215487
0.215518
0.215559
0.215609
0.215666
0.215725
0.215784
0.21584
0.215891
0.215932
0.215963
0.215981
0.215983
0.215972
0.215946
0.215908
0.215861
0.215809
0.215754
0.215699
0.215647
0.215601
0.215563
0.215533
0.215515
0.215511
0.215575
0.232303
0.232198
0.232193
0.232201
0.232219
0.232247
0.232282
0.232324
0.232369
0.232416
0.232461
0.232503
0.232539
0.232565
0.232581
0.232584
0.232574
0.232553
0.232523
0.232485
0.232444
0.232401
0.23236
0.232322
0.23229
0.232265
0.232247
0.232239
0.232246
0.23235
0.254249
0.254152
0.254137
0.254135
0.254142
0.254158
0.254181
0.254211
0.254246
0.254283
0.25432
0.254356
0.254387
0.25441
0.254424
0.254427
0.25442
0.254403
0.254378
0.254348
0.254315
0.254282
0.25425
0.254223
0.254203
0.254188
0.254181
0.254183
0.254197
0.254294
0.285578
0.28568
0.285696
0.285692
0.285693
0.285701
0.285715
0.285737
0.285764
0.285794
0.285826
0.285857
0.285884
0.285906
0.285919
0.285923
0.285917
0.285902
0.285882
0.285857
0.28583
0.285803
0.285779
0.28576
0.285746
0.285739
0.285737
0.285741
0.285724
0.285622
0.329397
0.328796
0.328743
0.328713
0.328698
0.328697
0.328705
0.328722
0.328744
0.328771
0.3288
0.328828
0.328854
0.328875
0.328887
0.328891
0.328886
0.328873
0.328854
0.328832
0.328808
0.328785
0.328765
0.328751
0.328743
0.328745
0.328758
0.328788
0.32884
0.329441
-0.0577919
-0.0575213
-0.0571045
-0.0564919
-0.0557184
-0.0548138
-0.0538161
-0.0527671
-0.0517121
-0.0506974
-0.0497683
-0.048967
-0.0483304
-0.0478883
-0.0476616
-0.0476612
-0.047887
-0.0483282
-0.0489639
-0.0497646
-0.0506932
-0.0517078
-0.0527629
-0.0538123
-0.054811
-0.0557168
-0.0564916
-0.0571054
-0.0575228
-0.0577935
-0.0395202
-0.0392452
-0.0388324
-0.0382159
-0.0374413
-0.0365368
-0.0355393
-0.0344909
-0.0334365
-0.0324224
-0.0314939
-0.0306932
-0.0300571
-0.0296155
-0.0293892
-0.0293888
-0.0296142
-0.0300549
-0.03069
-0.0314901
-0.0324181
-0.0334319
-0.0344863
-0.0355351
-0.0365333
-0.037439
-0.038215
-0.0388327
-0.0392463
-0.0395215
-0.00675288
-0.00666078
-0.00627106
-0.00567397
-0.00491182
-0.00401774
-0.00303038
-0.001992
-0.000947607
5.68282e-05
0.000976422
0.0017694
0.00239915
0.00283627
0.00306025
0.00306068
0.00283756
0.00240131
0.0017724
0.000980186
6.12274e-05
-0.000942737
-0.00198688
-0.00302532
-0.00401314
-0.00490812
-0.00567145
-0.0062697
-0.00666031
-0.00675289
0.0162003
0.0164282
0.016829
0.0174218
0.0181723
0.0190505
0.0200197
0.0210389
0.0220639
0.0230495
0.0239518
0.0247297
0.0253474
0.0257762
0.0259959
0.0259964
0.0257775
0.0253496
0.0247327
0.0239555
0.023054
0.022069
0.0210446
0.0200257
0.0190564
0.0181777
0.0174264
0.0168325
0.0164307
0.0162023
0.0368702
0.0370486
0.03743
0.0380027
0.0387306
0.0395834
0.040525
0.0415153
0.0425112
0.0434689
0.0443454
0.0451009
0.0457007
0.046117
0.0463304
0.0463309
0.0461184
0.0457029
0.0451037
0.0443489
0.0434733
0.0425166
0.0415216
0.040532
0.0395908
0.0387379
0.0380094
0.0374358
0.0370538
0.036875
0.054187
0.0543723
0.0547437
0.0552958
0.0559965
0.0568171
0.057723
0.0586757
0.0596339
0.0605552
0.0613983
0.062125
0.0627017
0.0631019
0.0633071
0.0633076
0.0631033
0.0627036
0.0621274
0.0614015
0.0605594
0.0596395
0.0586827
0.0577311
0.056826
0.0560057
0.0553047
0.0547521
0.0543805
0.0541949
0.0689721
0.0691486
0.0695033
0.070029
0.0706965
0.071478
0.072341
0.0732485
0.0741612
0.0750388
0.0758419
0.0765339
0.077083
0.077464
0.0776593
0.0776596
0.0774649
0.0770843
0.0765355
0.0758444
0.0750428
0.0741672
0.0732563
0.0723504
0.0714886
0.0707075
0.07004
0.0695141
0.0691595
0.0689828
0.0816305
0.0817986
0.0821344
0.0826307
0.0832604
0.0839977
0.0848118
0.0856679
0.0865289
0.0873567
0.0881141
0.0887665
0.0892842
0.0896433
0.0898272
0.0898273
0.0896435
0.0892845
0.0887671
0.0881157
0.0873605
0.0865353
0.0856767
0.0848225
0.0840098
0.0832731
0.0826435
0.0821474
0.0818118
0.0816435
0.0925513
0.0927091
0.0930237
0.0934876
0.0940762
0.0947652
0.0955258
0.0963255
0.0971298
0.097903
0.0986102
0.0992194
0.0997026
0.100038
0.100209
0.100209
0.100037
0.0997022
0.0992195
0.0986118
0.0979071
0.097137
0.0963354
0.0955376
0.0947784
0.0940901
0.0935019
0.0930385
0.0927243
0.0925665
0.102043
0.10219
0.102482
0.102912
0.103457
0.104094
0.104798
0.105538
0.106282
0.106997
0.107651
0.108214
0.108661
0.108971
0.10913
0.109129
0.108971
0.108661
0.108215
0.107654
0.107002
0.10629
0.105549
0.104811
0.104108
0.103471
0.102927
0.102498
0.102207
0.10206
0.110367
0.110502
0.110771
0.111165
0.111665
0.112249
0.112895
0.113573
0.114255
0.11491
0.115509
0.116025
0.116434
0.116718
0.116863
0.116863
0.116718
0.116434
0.116026
0.115512
0.114916
0.114263
0.113584
0.112908
0.112264
0.11168
0.111181
0.110787
0.11052
0.110385
0.117745
0.117868
0.118112
0.118471
0.118925
0.119456
0.120041
0.120657
0.121276
0.121871
0.122414
0.122883
0.123254
0.123512
0.123644
0.123644
0.123513
0.123256
0.122885
0.122419
0.121878
0.121286
0.12067
0.120056
0.119471
0.11894
0.118487
0.118129
0.117885
0.117762
0.124369
0.12448
0.1247
0.125022
0.125431
0.125909
0.126436
0.12699
0.127547
0.128081
0.12857
0.128991
0.129326
0.129558
0.129676
0.129677
0.129559
0.129328
0.128995
0.128576
0.128089
0.127557
0.127004
0.126452
0.125926
0.125448
0.125039
0.124716
0.124497
0.124386
0.13041
0.130509
0.130705
0.130992
0.131356
0.131782
0.132252
0.132746
0.133242
0.133719
0.134154
0.13453
0.134828
0.135035
0.135141
0.135142
0.135037
0.134832
0.134536
0.134162
0.133729
0.133255
0.132762
0.13227
0.131801
0.131375
0.13101
0.130721
0.130525
0.130426
0.136019
0.136107
0.13628
0.136533
0.136855
0.137231
0.137646
0.138082
0.138521
0.138942
0.139328
0.13966
0.139924
0.140107
0.140201
0.140202
0.14011
0.139929
0.139668
0.139338
0.138956
0.138537
0.138101
0.137666
0.137252
0.136876
0.136553
0.136298
0.136125
0.136037
0.141339
0.141416
0.141567
0.141789
0.14207
0.1424
0.142763
0.143146
0.14353
0.143899
0.144237
0.144529
0.14476
0.144921
0.145003
0.145005
0.144924
0.144766
0.144538
0.14425
0.143915
0.143548
0.143166
0.142786
0.142424
0.142094
0.141812
0.141589
0.141437
0.14136
0.146503
0.146569
0.146701
0.146893
0.147138
0.147424
0.147739
0.148072
0.148405
0.148726
0.14902
0.149273
0.149474
0.149614
0.149686
0.149687
0.149618
0.149481
0.149284
0.149034
0.148743
0.148425
0.148094
0.147764
0.14745
0.147164
0.14692
0.146727
0.146596
0.14653
0.151641
0.151699
0.151812
0.151978
0.152188
0.152434
0.152705
0.152991
0.153278
0.153554
0.153807
0.154025
0.154199
0.154319
0.154382
0.154383
0.154324
0.154207
0.154037
0.153822
0.153572
0.153298
0.153014
0.152731
0.152461
0.152216
0.152007
0.151842
0.15173
0.151673
0.156885
0.156935
0.157031
0.157172
0.157351
0.15756
0.157791
0.158035
0.15828
0.158516
0.158732
0.158918
0.159067
0.15917
0.159224
0.159226
0.159176
0.159076
0.158931
0.158748
0.158534
0.158301
0.158058
0.157817
0.157588
0.157381
0.157204
0.157065
0.156971
0.156922
0.162374
0.162416
0.162498
0.162616
0.162767
0.162943
0.163137
0.163343
0.16355
0.16375
0.163933
0.164091
0.164217
0.164305
0.164352
0.164354
0.164312
0.164227
0.164104
0.163949
0.163768
0.163571
0.163367
0.163164
0.162972
0.162798
0.162651
0.162535
0.162456
0.162414
0.168262
0.168298
0.168366
0.168464
0.168589
0.168735
0.168898
0.16907
0.169244
0.169411
0.169565
0.169698
0.169804
0.169879
0.169918
0.16992
0.169885
0.169814
0.16971
0.16958
0.169429
0.169265
0.169095
0.168926
0.168766
0.168623
0.168501
0.168405
0.16834
0.168306
0.174734
0.174764
0.174819
0.1749
0.175002
0.175122
0.175256
0.175398
0.175542
0.175681
0.175809
0.17592
0.176009
0.176072
0.176105
0.176107
0.176078
0.176019
0.175933
0.175825
0.1757
0.175564
0.175424
0.175285
0.175154
0.175037
0.174938
0.174861
0.174808
0.174779
0.18202
0.182046
0.18209
0.182154
0.182236
0.182332
0.182441
0.182557
0.182675
0.18279
0.182895
0.182987
0.183061
0.183113
0.183141
0.183143
0.18312
0.183072
0.183001
0.182912
0.182809
0.182699
0.182585
0.182472
0.182367
0.182273
0.182194
0.182133
0.182092
0.182067
0.190431
0.190452
0.190487
0.190536
0.190599
0.190675
0.190762
0.190855
0.190951
0.191044
0.19113
0.191206
0.191267
0.191311
0.191334
0.191337
0.191318
0.191278
0.191221
0.191148
0.191065
0.190976
0.190885
0.190795
0.190712
0.190639
0.190578
0.190532
0.1905
0.19048
0.200402
0.200418
0.200444
0.200479
0.200526
0.200584
0.200651
0.200725
0.200802
0.200876
0.200946
0.201008
0.201059
0.201095
0.201115
0.201118
0.201103
0.201071
0.201024
0.200965
0.200899
0.200829
0.200757
0.200687
0.200624
0.200568
0.200524
0.200491
0.200466
0.200451
0.212571
0.212579
0.212597
0.212621
0.212653
0.212696
0.212746
0.212803
0.212862
0.212921
0.212978
0.213029
0.213071
0.213102
0.213119
0.213122
0.21311
0.213084
0.213046
0.212999
0.212947
0.212891
0.212836
0.212784
0.212737
0.212698
0.212667
0.212645
0.212628
0.21262
0.227885
0.227868
0.227878
0.227891
0.227911
0.227939
0.227975
0.228017
0.228062
0.228109
0.228155
0.228197
0.228233
0.228259
0.228275
0.228277
0.228268
0.228247
0.228217
0.228179
0.228138
0.228095
0.228053
0.228015
0.227983
0.227957
0.227938
0.227925
0.227916
0.227933
0.247599
0.247522
0.247513
0.247513
0.247522
0.247538
0.247562
0.247592
0.247626
0.247663
0.247701
0.247736
0.247767
0.24779
0.247804
0.247807
0.2478
0.247783
0.247758
0.247728
0.247696
0.247663
0.247631
0.247604
0.247583
0.247568
0.24756
0.247559
0.247567
0.247645
0.273252
0.273377
0.273399
0.273399
0.273403
0.273411
0.273426
0.273448
0.273475
0.273505
0.273537
0.273568
0.273595
0.273617
0.273629
0.273633
0.273627
0.273613
0.273592
0.273567
0.273541
0.273514
0.27349
0.273471
0.273458
0.273449
0.273445
0.273445
0.273422
0.273297
0.30993
0.309379
0.309358
0.309336
0.309326
0.309326
0.309335
0.309352
0.309374
0.3094
0.309429
0.309458
0.309483
0.309503
0.309515
0.309518
0.309513
0.309501
0.309482
0.309461
0.309438
0.309415
0.309395
0.309381
0.309374
0.309374
0.309384
0.309404
0.309424
0.309975
-0.0148727
-0.0147533
-0.0143365
-0.0136849
-0.0128533
-0.0118759
-0.0107954
-0.00965801
-0.00851281
-0.00741024
-0.00639976
-0.00552757
-0.00483432
-0.00435283
-0.00410609
-0.00410561
-0.00435137
-0.00483184
-0.00552411
-0.00639555
-0.00740563
-0.0085082
-0.00965381
-0.010792
-0.0118735
-0.0128522
-0.013685
-0.0143374
-0.0147547
-0.0148741
-0.0103749
-0.0101355
-0.00970269
-0.00904416
-0.00821075
-0.00723313
-0.00615305
-0.0050161
-0.00387136
-0.00276916
-0.00175892
-0.000886826
-0.000193553
0.000288075
0.000535021
0.000535505
0.000289562
-0.000191018
-0.000883295
-0.00175459
-0.00276438
-0.00386654
-0.00501167
-0.00614936
-0.00723044
-0.0082092
-0.0090437
-0.00970309
-0.0101364
-0.0103761
0.0118489
0.0119654
0.0123923
0.0130332
0.013854
0.0148196
0.0158875
0.0170122
0.0181446
0.019235
0.0202342
0.0210967
0.0217822
0.0222584
0.0225025
0.0225031
0.02226
0.0217849
0.0211003
0.0202386
0.0192399
0.0181497
0.0170171
0.0158919
0.0148232
0.0138568
0.0130351
0.0123933
0.0119657
0.0118489
0.0284705
0.0287166
0.0291513
0.0297887
0.0305966
0.0315438
0.0325904
0.0336922
0.0348014
0.0358693
0.0368478
0.0376922
0.0383633
0.0388295
0.0390685
0.0390691
0.0388312
0.0383661
0.0376959
0.0368522
0.0358744
0.0348069
0.0336977
0.0325957
0.0315488
0.0306012
0.0297926
0.0291544
0.028719
0.0284726
0.0455901
0.0457827
0.0461956
0.0468097
0.0475914
0.048509
0.0495233
0.0505911
0.0516662
0.0527011
0.0536492
0.0544672
0.0551172
0.0555686
0.0558001
0.0558007
0.0555703
0.0551198
0.0544707
0.0536534
0.0527061
0.0516718
0.0505972
0.0495297
0.0485157
0.0475981
0.046816
0.0462014
0.0457881
0.0455952
0.0604248
0.0606354
0.0610379
0.0616295
0.0623806
0.0632613
0.0642345
0.0652591
0.0662905
0.0672831
0.0681924
0.0689768
0.0695999
0.0700326
0.0702545
0.070255
0.0700341
0.0696021
0.0689797
0.0681961
0.0672878
0.0662963
0.065266
0.0642425
0.06327
0.0623896
0.0616384
0.0610466
0.060644
0.060433
0.0735687
0.0737687
0.0741512
0.0747131
0.0754265
0.0762628
0.0771871
0.0781601
0.0791395
0.0800821
0.0809453
0.0816898
0.0822811
0.0826916
0.0829019
0.0829022
0.0826924
0.0822823
0.0816916
0.0809481
0.0800864
0.0791457
0.0781681
0.0771967
0.0762736
0.0754377
0.0747244
0.0741625
0.07378
0.0735796
0.08507
0.0852612
0.0856222
0.0861512
0.0868224
0.087609
0.0884782
0.089393
0.0903139
0.0911999
0.0920112
0.0927107
0.0932661
0.0936515
0.0938488
0.0938488
0.0936515
0.0932661
0.0927113
0.0920131
0.091204
0.0903206
0.0894022
0.0884893
0.0876214
0.0868354
0.0861645
0.0856358
0.0852747
0.0850834
0.0951548
0.0953338
0.0956707
0.0961638
0.0967892
0.0975219
0.0983313
0.0991831
0.10004
0.100865
0.10162
0.10227
0.102787
0.103145
0.103328
0.103328
0.103145
0.102786
0.10227
0.101621
0.100869
0.100048
0.0991932
0.0983435
0.0975354
0.0968035
0.0961786
0.095686
0.0953494
0.0951705
0.104023
0.104188
0.1045
0.104955
0.105532
0.106208
0.106955
0.10774
0.108531
0.10929
0.109986
0.110585
0.111061
0.111391
0.11156
0.111559
0.11139
0.11106
0.110586
0.109988
0.109296
0.108539
0.107751
0.106968
0.106223
0.105547
0.104971
0.104516
0.104206
0.10404
0.111868
0.11202
0.112305
0.112721
0.113249
0.113867
0.114549
0.115266
0.115988
0.116681
0.117316
0.117863
0.118297
0.118598
0.118752
0.118752
0.118598
0.118297
0.117864
0.117319
0.116687
0.115996
0.115278
0.114562
0.113882
0.113265
0.112738
0.112322
0.112037
0.111886
0.11887
0.119007
0.119265
0.119643
0.12012
0.12068
0.121297
0.121946
0.122599
0.123226
0.123799
0.124294
0.124687
0.124959
0.125098
0.125098
0.124959
0.124688
0.124296
0.123804
0.123233
0.122608
0.121958
0.121311
0.120695
0.120137
0.119659
0.119282
0.119024
0.118887
0.125191
0.125314
0.125545
0.125884
0.126312
0.126814
0.127367
0.127949
0.128534
0.129096
0.12961
0.130054
0.130406
0.13065
0.130775
0.130775
0.130651
0.130408
0.130057
0.129616
0.129105
0.128546
0.127963
0.127383
0.126831
0.12633
0.1259
0.125562
0.12533
0.125207
0.130981
0.13109
0.131295
0.131596
0.131977
0.132422
0.132914
0.133431
0.133951
0.13445
0.134907
0.135301
0.135614
0.135831
0.135942
0.135943
0.135833
0.135617
0.135306
0.134915
0.134461
0.133965
0.133448
0.132933
0.132442
0.131996
0.131614
0.131312
0.131107
0.130997
0.136379
0.136474
0.136655
0.136919
0.137255
0.137647
0.13808
0.138536
0.138993
0.139433
0.139836
0.140183
0.140459
0.140651
0.140749
0.14075
0.140653
0.140463
0.14019
0.139846
0.139447
0.13901
0.138555
0.138101
0.137669
0.137276
0.136939
0.136674
0.136493
0.136397
0.141515
0.141597
0.141754
0.141985
0.142278
0.14262
0.142999
0.143396
0.143796
0.144181
0.144532
0.144836
0.145077
0.145244
0.14533
0.145331
0.145247
0.145082
0.144845
0.144545
0.144196
0.143815
0.143418
0.143022
0.142645
0.142302
0.142008
0.141777
0.141619
0.141537
0.146512
0.146583
0.146718
0.146918
0.147172
0.147468
0.147796
0.14814
0.148486
0.148819
0.149123
0.149386
0.149595
0.14974
0.149815
0.149817
0.149744
0.149602
0.149397
0.149138
0.148836
0.148506
0.148163
0.147821
0.147495
0.147198
0.146945
0.146745
0.14661
0.14654
0.151494
0.151553
0.151669
0.151841
0.152058
0.152312
0.152593
0.152888
0.153185
0.153471
0.153732
0.153958
0.154138
0.154263
0.154328
0.154329
0.154268
0.154147
0.153971
0.153748
0.153489
0.153206
0.152912
0.152619
0.152339
0.152086
0.15187
0.1517
0.151585
0.151527
0.156581
0.15663
0.156728
0.156874
0.157058
0.157274
0.157512
0.157763
0.158016
0.158259
0.158482
0.158675
0.158828
0.158935
0.158991
0.158993
0.158941
0.158837
0.158687
0.158498
0.158278
0.158037
0.157787
0.157538
0.157302
0.157088
0.156906
0.156762
0.156666
0.156618
0.161902
0.161941
0.162022
0.162144
0.162299
0.16248
0.16268
0.162892
0.163105
0.163311
0.163499
0.163662
0.163792
0.163883
0.16393
0.163932
0.163889
0.163801
0.163674
0.163514
0.163329
0.163126
0.162916
0.162708
0.16251
0.162331
0.162179
0.162059
0.16198
0.161943
0.167595
0.167623
0.16769
0.16779
0.167918
0.168068
0.168235
0.168412
0.16859
0.168762
0.16892
0.169057
0.169166
0.169242
0.169283
0.169285
0.169248
0.169175
0.169069
0.168935
0.16878
0.168611
0.168437
0.168264
0.1681
0.167952
0.167827
0.167729
0.167665
0.167638
0.173814
0.173834
0.173887
0.173968
0.174072
0.174195
0.174332
0.174478
0.174625
0.174768
0.174899
0.175013
0.175104
0.175168
0.175202
0.175204
0.175174
0.175113
0.175025
0.174914
0.174786
0.174647
0.174504
0.174362
0.174228
0.174107
0.174006
0.173928
0.173878
0.17386
0.180745
0.180756
0.180796
0.18086
0.180943
0.181042
0.181153
0.181271
0.181392
0.181509
0.181617
0.181711
0.181787
0.181841
0.181869
0.181871
0.181847
0.181797
0.181724
0.181633
0.181529
0.181416
0.181299
0.181185
0.181077
0.18098
0.1809
0.18084
0.180802
0.180793
0.188606
0.188609
0.188639
0.188687
0.188751
0.188828
0.188917
0.189012
0.189109
0.189204
0.189293
0.18937
0.189432
0.189477
0.189501
0.189503
0.189484
0.189443
0.189384
0.18931
0.189225
0.189135
0.189042
0.188951
0.188866
0.188791
0.188729
0.188684
0.188657
0.188656
0.197661
0.197657
0.197678
0.197712
0.19776
0.197819
0.197887
0.197962
0.198039
0.198115
0.198187
0.19825
0.198301
0.198338
0.198359
0.198362
0.198346
0.198313
0.198265
0.198206
0.198138
0.198066
0.197993
0.197923
0.197858
0.197802
0.197757
0.197725
0.197706
0.197711
0.208208
0.208205
0.208218
0.208241
0.208274
0.208316
0.208368
0.208425
0.208485
0.208545
0.208602
0.208654
0.208697
0.208728
0.208746
0.208749
0.208737
0.20871
0.208672
0.208624
0.208571
0.208515
0.208458
0.208405
0.208358
0.208318
0.208288
0.208266
0.208255
0.208257
0.220532
0.220547
0.220557
0.22057
0.220592
0.220621
0.220657
0.220699
0.220745
0.220792
0.220839
0.220882
0.220918
0.220944
0.220959
0.220962
0.220953
0.220932
0.220901
0.220864
0.220822
0.220778
0.220735
0.220696
0.220664
0.220638
0.220618
0.220606
0.220596
0.220581
0.234727
0.234746
0.234744
0.234747
0.234758
0.234775
0.234799
0.23483
0.234864
0.234902
0.23494
0.234976
0.235007
0.23503
0.235043
0.235047
0.235039
0.235022
0.234997
0.234968
0.234935
0.234901
0.234869
0.234842
0.23482
0.234805
0.234795
0.234792
0.234793
0.234775
0.249446
0.249707
0.249734
0.249739
0.249746
0.249756
0.249772
0.249795
0.249822
0.249852
0.249884
0.249916
0.249943
0.249963
0.249976
0.249979
0.249972
0.249958
0.249938
0.249914
0.249888
0.249861
0.249837
0.249817
0.249803
0.249793
0.249787
0.249782
0.249755
0.249494
0.266724
0.2669
0.266934
0.266928
0.266926
0.26693
0.266941
0.266958
0.26698
0.267007
0.267036
0.267064
0.267089
0.267108
0.267119
0.267122
0.267117
0.267105
0.267087
0.267066
0.267043
0.267021
0.267001
0.266986
0.266978
0.266976
0.266978
0.266982
0.266947
0.266771
0.0231725
0.0233721
0.023866
0.0245966
0.025528
0.0266242
0.0278378
0.0291175
0.0304081
0.0316527
0.0327952
0.0337826
0.0345684
0.0351147
0.0353948
0.0353953
0.0351163
0.0345711
0.0337863
0.0327995
0.0316574
0.0304125
0.0291213
0.0278405
0.0266259
0.0255285
0.0245964
0.0238652
0.023371
0.0231713
0.017954
0.0182829
0.0187891
0.0195289
0.0204633
0.0215604
0.0227741
0.0240538
0.0253443
0.0265891
0.0277317
0.0287195
0.0295058
0.0300525
0.0303331
0.0303336
0.0300542
0.0295084
0.0287232
0.0277361
0.0265937
0.0253489
0.0240576
0.022777
0.0215623
0.0204642
0.0195291
0.0187887
0.0182821
0.017953
0.0326431
0.032811
0.033304
0.0340248
0.0349455
0.0360286
0.0372278
0.0384925
0.039768
0.0409981
0.0421271
0.0431029
0.0438794
0.0444193
0.0446963
0.0446969
0.0444211
0.0438823
0.0431067
0.0421316
0.041003
0.0397729
0.0384968
0.0372313
0.0360313
0.0349475
0.0340262
0.0333049
0.0328115
0.0326433
0.0438
0.0440786
0.0445713
0.0452853
0.0461896
0.0472502
0.0484235
0.0496603
0.0509074
0.0521099
0.0532134
0.054167
0.0549258
0.0554533
0.0557241
0.0557247
0.0554552
0.0549288
0.0541709
0.053218
0.0521149
0.0509125
0.0496651
0.048428
0.0472545
0.0461935
0.0452889
0.0445745
0.0440815
0.0438026
0.0571372
0.0573544
0.0578206
0.0585063
0.0593788
0.0604036
0.0615378
0.0627335
0.0639391
0.0651013
0.0661677
0.067089
0.0678219
0.0683313
0.0685927
0.0685934
0.0683331
0.0678246
0.0670925
0.066172
0.0651062
0.0639443
0.0627391
0.0615438
0.06041
0.0593853
0.0585127
0.0578269
0.0573605
0.057143
0.0691356
0.0693699
0.0698209
0.0704795
0.0713153
0.0722961
0.0733811
0.0745247
0.0756777
0.076789
0.0778084
0.0786888
0.0793891
0.0798757
0.0801253
0.0801258
0.0798771
0.0793911
0.0786916
0.077812
0.0767936
0.0756834
0.0745315
0.073389
0.0723049
0.0713246
0.0704889
0.0698303
0.0693792
0.0691446
0.0802662
0.080484
0.0809093
0.0815322
0.0823232
0.0832513
0.0842781
0.0853604
0.0864513
0.0875026
0.0884667
0.0892991
0.089961
0.0904208
0.0906565
0.0906567
0.0904213
0.0899619
0.0893008
0.0884695
0.0875071
0.0864576
0.0853686
0.0842881
0.0832624
0.0823349
0.0815443
0.0809216
0.0804961
0.0802782
0.0902642
0.0904712
0.0908703
0.0914544
0.0921958
0.0930654
0.0940273
0.095041
0.0960626
0.0970467
0.0979489
0.0987277
0.0993467
0.0997766
0.0999967
0.0999966
0.0997763
0.0993466
0.0987284
0.0979512
0.0970512
0.0960696
0.0950505
0.0940388
0.0930783
0.0922095
0.0914687
0.0908848
0.0904857
0.0902788
0.0992108
0.0994032
0.0997735
0.100316
0.101004
0.10181
0.102702
0.103642
0.104589
0.105501
0.106337
0.107058
0.107631
0.108029
0.108232
0.108232
0.108028
0.10763
0.107058
0.106339
0.105506
0.104597
0.103653
0.102715
0.101824
0.101019
0.100331
0.0997898
0.0994198
0.0992276
0.107194
0.107371
0.107712
0.10821
0.108842
0.109584
0.110403
0.111266
0.112134
0.112971
0.113737
0.114398
0.114924
0.115288
0.115475
0.115474
0.115287
0.114923
0.114399
0.11374
0.112976
0.112143
0.111276
0.110416
0.109598
0.108858
0.108227
0.107729
0.107389
0.107212
0.114337
0.114498
0.114808
0.115262
0.115837
0.116512
0.117257
0.118041
0.118831
0.119591
0.120287
0.120887
0.121364
0.121695
0.121864
0.121864
0.121695
0.121364
0.120889
0.120291
0.119597
0.11884
0.118053
0.11727
0.116527
0.115854
0.115279
0.114826
0.114516
0.114355
0.120768
0.120913
0.121192
0.121601
0.12212
0.122728
0.123399
0.124105
0.124816
0.1255
0.126126
0.126667
0.127096
0.127394
0.127546
0.127546
0.127394
0.127097
0.12667
0.126132
0.125508
0.124827
0.124118
0.123414
0.122744
0.122137
0.121618
0.121209
0.12093
0.120786
0.126615
0.126744
0.126993
0.127358
0.127821
0.128364
0.128963
0.129593
0.130227
0.130837
0.131396
0.131878
0.132261
0.132527
0.132663
0.132663
0.132528
0.132263
0.131882
0.131403
0.130848
0.13024
0.129608
0.12898
0.128382
0.127839
0.127376
0.12701
0.126761
0.126632
0.132003
0.132116
0.132336
0.132659
0.133068
0.133548
0.134078
0.134636
0.135196
0.135736
0.13623
0.136656
0.136995
0.13723
0.137351
0.137351
0.137232
0.136998
0.136662
0.136239
0.135749
0.135212
0.134653
0.134098
0.133568
0.133088
0.132677