/*--------------------------------*- C++ -*----------------------------------*\
| =========                 |                                                 |
| \\      /  F ield         | OpenFOAM: The Open Source CFD Toolbox           |
|  \\    /   O peration     | Version:  2506                                  |
|   \\  /    A nd           | Website:  www.openfoam.com                      |
|    \\/     M anipulation  |                                                 |
\*---------------------------------------------------------------------------*/
FoamFile
{
    version     2.0;
    format      ascii;
    arch        "LSB;label=32;scalar=64";
    class       volScalarField;
    location    "20";
    object      epsilon;
}
// * * * * * * * * * * * * * * * * * * * * * * * * * * * * * * * * * * * * * //

dimensions      [0 2 -3 0 0 0 0];

internalField   nonuniform List<scalar> 
144676
(
0.116227
0.116233
0.116231
0.11623
0.116228
0.116227
0.116227
0.116228
0.116229
0.11623
0.11623
0.116228
0.116226
0.116225
0.116227
0.11623
0.116231
0.116229
0.116228
0.116228
0.116228
0.116228
0.116229
0.11623
0.11623
0.11623
0.11623
0.11623
0.11623
0.116229
0.0471268
0.0471257
0.0471256
0.0471256
0.0471258
0.0471262
0.0471264
0.0471265
0.0471264
0.0471263
0.0471259
0.0471253
0.0471251
0.0471255
0.047126
0.047126
0.0471259
0.0471259
0.0471261
0.047126
0.0471259
0.0471259
0.0471258
0.0471255
0.0471252
0.047125
0.0471252
0.0471253
0.0471255
0.0471267
0.0283388
0.0283381
0.0283382
0.0283384
0.0283387
0.0283389
0.0283391
0.0283391
0.0283391
0.0283391
0.0283389
0.0283388
0.0283388
0.0283389
0.0283389
0.0283389
0.0283388
0.0283389
0.0283389
0.0283388
0.0283388
0.0283388
0.0283387
0.0283385
0.0283383
0.0283382
0.028338
0.0283379
0.0283378
0.0283386
0.0203004
0.0202999
0.0203001
0.0203003
0.0203005
0.0203007
0.0203008
0.0203009
0.0203009
0.0203009
0.0203009
0.0203009
0.0203009
0.020301
0.020301
0.0203009
0.0203009
0.0203009
0.0203009
0.0203008
0.0203008
0.0203008
0.0203007
0.0203007
0.0203005
0.0203004
0.0203002
0.0203
0.0202998
0.0203003
0.0158321
0.0158319
0.0158322
0.0158325
0.0158327
0.0158328
0.0158329
0.0158329
0.015833
0.015833
0.0158331
0.0158331
0.0158332
0.0158332
0.0158332
0.0158332
0.0158332
0.0158331
0.0158331
0.0158331
0.0158331
0.015833
0.015833
0.0158329
0.0158328
0.0158327
0.0158325
0.0158323
0.015832
0.0158322
0.0129813
0.0129813
0.0129816
0.0129819
0.012982
0.0129821
0.0129822
0.0129822
0.0129823
0.0129823
0.0129824
0.0129825
0.0129825
0.0129825
0.0129825
0.0129825
0.0129825
0.0129825
0.0129824
0.0129824
0.0129824
0.0129824
0.0129824
0.0129823
0.0129822
0.012982
0.0129818
0.0129816
0.0129813
0.0129813
0.0110018
0.011002
0.0110024
0.0110026
0.0110028
0.0110029
0.0110029
0.0110029
0.011003
0.011003
0.0110031
0.0110031
0.0110031
0.0110031
0.0110031
0.0110031
0.0110031
0.0110031
0.0110031
0.0110031
0.0110031
0.0110031
0.011003
0.0110029
0.0110028
0.0110027
0.0110025
0.0110023
0.0110019
0.0110018
0.00954655
0.00954678
0.00954721
0.00954748
0.00954763
0.0095477
0.00954775
0.00954779
0.00954783
0.00954786
0.00954788
0.0095479
0.00954792
0.00954792
0.00954792
0.00954792
0.00954791
0.00954789
0.00954789
0.00954789
0.00954789
0.00954787
0.00954782
0.00954775
0.00954766
0.00954754
0.00954738
0.00954712
0.00954672
0.00954651
0.00843138
0.00843167
0.00843212
0.0084324
0.00843255
0.00843263
0.00843269
0.00843273
0.00843276
0.00843278
0.00843279
0.0084328
0.00843281
0.00843281
0.0084328
0.0084328
0.00843279
0.00843279
0.00843278
0.00843278
0.00843278
0.00843275
0.00843271
0.00843266
0.00843259
0.00843249
0.00843233
0.00843205
0.00843162
0.00843135
0.00754948
0.00754981
0.00755028
0.00755057
0.00755073
0.00755082
0.00755087
0.00755091
0.00755094
0.00755095
0.00755095
0.00755096
0.00755096
0.00755096
0.00755095
0.00755095
0.00755095
0.00755094
0.00755094
0.00755094
0.00755093
0.00755091
0.00755089
0.00755085
0.00755079
0.00755069
0.00755052
0.00755024
0.00754979
0.00754947
0.00683457
0.00683494
0.00683542
0.00683572
0.00683587
0.00683595
0.00683601
0.00683604
0.00683606
0.00683607
0.00683608
0.00683608
0.00683608
0.00683608
0.00683607
0.00683607
0.00683607
0.00683606
0.00683606
0.00683606
0.00683605
0.00683604
0.00683603
0.006836
0.00683594
0.00683585
0.00683568
0.00683539
0.00683493
0.00683456
0.00624332
0.00624372
0.00624421
0.0062445
0.00624465
0.00624472
0.00624477
0.0062448
0.00624482
0.00624483
0.00624483
0.00624484
0.00624484
0.00624484
0.00624483
0.00624483
0.00624483
0.00624483
0.00624483
0.00624483
0.00624483
0.00624482
0.0062448
0.00624477
0.00624472
0.00624463
0.00624447
0.00624418
0.00624371
0.0062433
0.00574619
0.00574662
0.00574711
0.0057474
0.00574754
0.00574762
0.00574766
0.00574769
0.00574771
0.00574771
0.00574772
0.00574772
0.00574772
0.00574772
0.00574772
0.00574772
0.00574772
0.00574772
0.00574772
0.00574772
0.00574772
0.00574771
0.00574769
0.00574766
0.00574762
0.00574754
0.00574739
0.0057471
0.00574662
0.00574618
0.00532238
0.00532283
0.00532331
0.0053236
0.00532375
0.00532383
0.00532387
0.0053239
0.00532391
0.00532391
0.00532392
0.00532392
0.00532392
0.00532392
0.00532392
0.00532392
0.00532392
0.00532392
0.00532392
0.00532392
0.00532392
0.00532391
0.00532389
0.00532387
0.00532384
0.00532376
0.00532361
0.00532332
0.00532283
0.00532238
0.00495679
0.00495725
0.00495774
0.00495804
0.00495819
0.00495827
0.00495831
0.00495833
0.00495833
0.00495833
0.00495833
0.00495832
0.00495833
0.00495833
0.00495833
0.00495833
0.00495833
0.00495833
0.00495833
0.00495834
0.00495833
0.00495832
0.00495832
0.0049583
0.00495827
0.0049582
0.00495804
0.00495775
0.00495726
0.0049568
0.00463822
0.00463869
0.00463917
0.00463947
0.00463963
0.00463971
0.00463974
0.00463975
0.00463975
0.00463974
0.00463974
0.00463974
0.00463974
0.00463974
0.00463974
0.00463974
0.00463974
0.00463974
0.00463975
0.00463975
0.00463975
0.00463975
0.00463974
0.00463973
0.0046397
0.00463962
0.00463947
0.00463917
0.00463869
0.00463822
0.00435815
0.00435863
0.0043591
0.0043594
0.00435956
0.00435963
0.00435966
0.00435966
0.00435966
0.00435965
0.00435965
0.00435965
0.00435965
0.00435965
0.00435965
0.00435965
0.00435965
0.00435965
0.00435966
0.00435966
0.00435966
0.00435966
0.00435966
0.00435965
0.00435962
0.00435954
0.00435938
0.00435909
0.00435862
0.00435815
0.00411002
0.00411049
0.00411096
0.00411125
0.0041114
0.00411147
0.0041115
0.0041115
0.0041115
0.00411149
0.00411149
0.00411148
0.00411148
0.00411148
0.00411148
0.00411149
0.00411149
0.00411149
0.00411149
0.00411149
0.0041115
0.0041115
0.0041115
0.00411149
0.00411146
0.00411139
0.00411123
0.00411094
0.00411048
0.00411001
0.00388866
0.00388913
0.00388958
0.00388986
0.00389001
0.00389008
0.00389011
0.00389012
0.00389011
0.00389011
0.0038901
0.0038901
0.00389009
0.00389009
0.00389009
0.0038901
0.0038901
0.0038901
0.0038901
0.0038901
0.00389011
0.00389011
0.00389011
0.0038901
0.00389007
0.00389
0.00388984
0.00388956
0.00388912
0.00388865
0.00368997
0.00369045
0.00369088
0.00369115
0.0036913
0.00369136
0.00369139
0.0036914
0.00369139
0.00369139
0.00369138
0.00369138
0.00369138
0.00369138
0.00369138
0.00369138
0.00369138
0.00369138
0.00369138
0.00369138
0.00369139
0.00369139
0.00369138
0.00369138
0.00369135
0.00369128
0.00369113
0.00369086
0.00369043
0.00368997
0.00351066
0.00351113
0.00351154
0.0035118
0.00351194
0.00351201
0.00351203
0.00351204
0.00351204
0.00351204
0.00351204
0.00351203
0.00351203
0.00351203
0.00351203
0.00351203
0.00351203
0.00351203
0.00351203
0.00351203
0.00351203
0.00351203
0.00351203
0.00351202
0.003512
0.00351193
0.00351179
0.00351153
0.00351112
0.00351066
0.00334802
0.00334849
0.00334888
0.00334913
0.00334926
0.00334932
0.00334935
0.00334936
0.00334936
0.00334936
0.00334936
0.00334936
0.00334935
0.00334935
0.00334935
0.00334935
0.00334935
0.00334935
0.00334935
0.00334935
0.00334935
0.00334935
0.00334935
0.00334935
0.00334932
0.00334926
0.00334912
0.00334887
0.00334847
0.00334802
0.00319985
0.0032003
0.00320068
0.00320092
0.00320104
0.0032011
0.00320113
0.00320114
0.00320114
0.00320114
0.00320114
0.00320114
0.00320114
0.00320114
0.00320113
0.00320113
0.00320113
0.00320113
0.00320113
0.00320113
0.00320113
0.00320113
0.00320113
0.00320113
0.0032011
0.00320104
0.00320091
0.00320067
0.00320029
0.00319985
0.00306429
0.00306474
0.0030651
0.00306533
0.00306545
0.0030655
0.00306553
0.00306554
0.00306554
0.00306554
0.00306554
0.00306554
0.00306554
0.00306554
0.00306553
0.00306553
0.00306553
0.00306553
0.00306553
0.00306553
0.00306553
0.00306553
0.00306553
0.00306553
0.0030655
0.00306544
0.00306532
0.00306509
0.00306473
0.0030643
0.00293982
0.00294026
0.00294061
0.00294083
0.00294094
0.002941
0.00294102
0.00294102
0.00294102
0.00294102
0.00294102
0.00294102
0.00294102
0.00294102
0.00294102
0.00294102
0.00294101
0.00294102
0.00294102
0.00294102
0.00294102
0.00294102
0.00294102
0.00294101
0.00294099
0.00294094
0.00294082
0.0029406
0.00294026
0.00293983
0.00282518
0.00282562
0.00282595
0.00282616
0.00282626
0.00282631
0.00282633
0.00282634
0.00282634
0.00282634
0.00282634
0.00282634
0.00282634
0.00282633
0.00282633
0.00282633
0.00282633
0.00282633
0.00282634
0.00282634
0.00282634
0.00282634
0.00282634
0.00282633
0.00282631
0.00282626
0.00282614
0.00282594
0.00282562
0.0028252
0.00271945
0.00271987
0.00272018
0.00272036
0.00272046
0.0027205
0.00272052
0.00272052
0.00272052
0.00272052
0.00272052
0.00272052
0.00272052
0.00272052
0.00272052
0.00272052
0.00272052
0.00272052
0.00272052
0.00272052
0.00272052
0.00272052
0.00272052
0.00272052
0.0027205
0.00272045
0.00272035
0.00272017
0.00271987
0.00271947
0.00262222
0.00262262
0.00262288
0.00262304
0.00262312
0.00262315
0.00262316
0.00262317
0.00262317
0.00262317
0.00262317
0.00262317
0.00262316
0.00262316
0.00262316
0.00262316
0.00262316
0.00262317
0.00262317
0.00262317
0.00262317
0.00262317
0.00262316
0.00262316
0.00262315
0.00262311
0.00262303
0.00262287
0.00262261
0.00262224
0.00253484
0.00253518
0.00253539
0.0025355
0.00253555
0.00253557
0.00253558
0.00253558
0.00253558
0.00253558
0.00253558
0.00253558
0.00253558
0.00253558
0.00253558
0.00253558
0.00253558
0.00253558
0.00253558
0.00253558
0.00253558
0.00253558
0.00253558
0.00253558
0.00253557
0.00253555
0.00253549
0.00253538
0.00253518
0.00253486
0.00246628
0.00246653
0.00246666
0.00246671
0.00246673
0.00246674
0.00246674
0.00246675
0.00246675
0.00246675
0.00246675
0.00246675
0.00246675
0.00246675
0.00246675
0.00246675
0.00246675
0.00246675
0.00246675
0.00246675
0.00246675
0.00246674
0.00246674
0.00246674
0.00246674
0.00246673
0.00246671
0.00246665
0.00246653
0.00246631
0.0964014
0.0964059
0.0964026
0.0963999
0.0963978
0.096397
0.0963982
0.0963999
0.0964011
0.0964014
0.0963997
0.0963965
0.0963943
0.0963962
0.0964006
0.0964033
0.0964014
0.0963986
0.0963982
0.0963989
0.0963992
0.0963997
0.096401
0.0964018
0.0964021
0.0964029
0.0964036
0.0964041
0.0964049
0.0964033
0.0468604
0.0468593
0.0468591
0.046859
0.0468594
0.0468601
0.0468607
0.0468611
0.0468613
0.0468612
0.0468603
0.0468592
0.0468588
0.0468594
0.0468601
0.0468602
0.04686
0.0468601
0.0468602
0.0468602
0.0468601
0.04686
0.0468596
0.046859
0.0468585
0.0468582
0.0468582
0.0468583
0.0468585
0.0468596
0.0284079
0.0284075
0.0284079
0.0284083
0.0284089
0.0284095
0.02841
0.0284102
0.0284103
0.0284102
0.02841
0.0284097
0.0284097
0.0284098
0.0284099
0.0284099
0.0284098
0.0284099
0.0284099
0.0284098
0.0284097
0.0284095
0.0284093
0.0284089
0.0284084
0.028408
0.0284075
0.0284071
0.0284066
0.0284071
0.0203092
0.0203095
0.0203102
0.0203108
0.0203114
0.0203119
0.0203122
0.0203123
0.0203125
0.0203126
0.0203126
0.0203126
0.0203127
0.0203127
0.0203127
0.0203127
0.0203127
0.0203127
0.0203126
0.0203125
0.0203124
0.0203123
0.0203122
0.0203119
0.0203115
0.020311
0.0203105
0.0203099
0.0203092
0.0203089
0.0158244
0.0158252
0.0158262
0.0158269
0.0158275
0.0158278
0.015828
0.0158282
0.0158284
0.0158285
0.0158287
0.0158288
0.0158289
0.015829
0.015829
0.0158289
0.0158289
0.0158288
0.0158288
0.0158287
0.0158286
0.0158286
0.0158284
0.0158282
0.0158279
0.0158274
0.0158269
0.0158262
0.0158252
0.0158243
0.0129722
0.0129733
0.0129745
0.0129753
0.0129758
0.0129761
0.0129763
0.0129764
0.0129766
0.0129768
0.0129769
0.012977
0.0129772
0.0129772
0.0129772
0.0129772
0.0129772
0.0129771
0.012977
0.012977
0.0129769
0.0129769
0.0129767
0.0129765
0.0129762
0.0129758
0.0129753
0.0129745
0.0129733
0.0129721
0.0109941
0.0109955
0.0109969
0.0109977
0.0109982
0.0109984
0.0109986
0.0109987
0.0109989
0.010999
0.0109991
0.0109992
0.0109993
0.0109994
0.0109994
0.0109994
0.0109993
0.0109993
0.0109992
0.0109992
0.0109991
0.0109991
0.0109989
0.0109987
0.0109984
0.010998
0.0109975
0.0109967
0.0109954
0.010994
0.00954029
0.00954184
0.00954331
0.0095442
0.00954468
0.00954494
0.0095451
0.00954523
0.00954533
0.00954542
0.0095455
0.00954559
0.00954566
0.00954569
0.00954569
0.00954568
0.00954565
0.0095456
0.00954557
0.00954553
0.00954549
0.0095454
0.00954527
0.00954509
0.00954486
0.00954452
0.009544
0.00954311
0.00954167
0.00954017
0.00842628
0.00842789
0.00842943
0.00843037
0.00843088
0.00843116
0.00843134
0.00843146
0.00843154
0.00843159
0.00843165
0.00843171
0.00843176
0.00843177
0.00843177
0.00843176
0.00843174
0.00843171
0.00843168
0.00843164
0.0084316
0.00843152
0.00843142
0.00843129
0.00843109
0.00843076
0.00843021
0.00842927
0.00842778
0.00842621
0.00754523
0.00754687
0.00754846
0.00754945
0.00754998
0.00755028
0.00755045
0.00755056
0.00755063
0.00755067
0.00755071
0.00755075
0.00755077
0.00755078
0.00755077
0.00755076
0.00755075
0.00755073
0.0075507
0.00755067
0.00755064
0.00755058
0.00755052
0.00755041
0.00755023
0.0075499
0.00754933
0.00754836
0.00754683
0.0075452
0.00683096
0.00683263
0.00683424
0.00683524
0.00683579
0.00683608
0.00683625
0.00683635
0.00683641
0.00683644
0.00683648
0.0068365
0.00683652
0.00683652
0.00683651
0.00683651
0.0068365
0.00683648
0.00683647
0.00683645
0.00683642
0.00683638
0.00683633
0.00683623
0.00683605
0.00683573
0.00683516
0.00683417
0.00683261
0.00683094
0.00624025
0.00624193
0.00624354
0.00624454
0.00624508
0.00624536
0.00624552
0.00624562
0.00624568
0.00624571
0.00624574
0.00624576
0.00624577
0.00624577
0.00624577
0.00624576
0.00624576
0.00624576
0.00624575
0.00624573
0.00624571
0.00624567
0.00624562
0.00624552
0.00624535
0.00624504
0.00624448
0.00624349
0.0062419
0.00624023
0.00574363
0.0057453
0.00574689
0.00574789
0.00574842
0.0057487
0.00574886
0.00574896
0.00574901
0.00574904
0.00574906
0.00574908
0.00574908
0.00574909
0.00574909
0.00574909
0.00574909
0.00574909
0.00574909
0.00574907
0.00574905
0.00574901
0.00574895
0.00574886
0.0057487
0.00574842
0.00574787
0.00574687
0.00574528
0.00574361
0.00532032
0.00532199
0.00532355
0.00532454
0.00532508
0.00532536
0.00532551
0.0053256
0.00532565
0.00532567
0.00532568
0.00532569
0.0053257
0.00532571
0.00532571
0.00532571
0.00532572
0.00532572
0.00532571
0.0053257
0.00532567
0.00532563
0.00532558
0.0053255
0.00532537
0.0053251
0.00532455
0.00532356
0.00532198
0.00532032
0.00495528
0.00495692
0.00495847
0.00495945
0.00496
0.00496028
0.00496042
0.0049605
0.00496053
0.00496054
0.00496055
0.00496056
0.00496057
0.00496058
0.00496058
0.00496058
0.00496058
0.00496058
0.00496058
0.00496057
0.00496054
0.00496051
0.00496047
0.00496041
0.00496028
0.00496001
0.00495946
0.00495848
0.00495693
0.00495528
0.0046373
0.00463893
0.00464045
0.00464143
0.00464197
0.00464224
0.00464238
0.00464244
0.00464246
0.00464246
0.00464247
0.00464247
0.00464248
0.00464249
0.00464249
0.00464249
0.00464249
0.00464249
0.00464249
0.00464248
0.00464247
0.00464245
0.00464242
0.00464236
0.00464224
0.00464196
0.00464142
0.00464044
0.00463893
0.0046373
0.00435789
0.00435951
0.00436099
0.00436195
0.00436248
0.00436275
0.00436287
0.00436292
0.00436294
0.00436294
0.00436294
0.00436294
0.00436295
0.00436295
0.00436295
0.00436296
0.00436296
0.00436296
0.00436296
0.00436296
0.00436295
0.00436294
0.00436292
0.00436286
0.00436274
0.00436246
0.00436192
0.00436096
0.00435949
0.00435788
0.00411048
0.00411208
0.00411352
0.00411446
0.00411498
0.00411524
0.00411535
0.0041154
0.00411541
0.00411541
0.00411541
0.0041154
0.0041154
0.00411541
0.00411541
0.00411542
0.00411542
0.00411542
0.00411542
0.00411542
0.00411542
0.00411541
0.00411539
0.00411534
0.00411522
0.00411496
0.00411443
0.00411349
0.00411205
0.00411047
0.00388992
0.0038915
0.0038929
0.00389381
0.00389431
0.00389456
0.00389467
0.00389472
0.00389473
0.00389472
0.00389471
0.00389471
0.00389471
0.00389471
0.00389472
0.00389472
0.00389473
0.00389473
0.00389472
0.00389472
0.00389472
0.00389472
0.0038947
0.00389465
0.00389454
0.00389429
0.00389377
0.00389285
0.00389147
0.00388992
0.0036921
0.00369367
0.00369502
0.00369589
0.00369638
0.00369662
0.00369672
0.00369676
0.00369677
0.00369677
0.00369676
0.00369676
0.00369676
0.00369676
0.00369677
0.00369677
0.00369677
0.00369677
0.00369677
0.00369677
0.00369677
0.00369676
0.00369675
0.0036967
0.0036966
0.00369635
0.00369585
0.00369496
0.00369363
0.0036921
0.00351371
0.00351527
0.00351657
0.00351741
0.00351787
0.0035181
0.0035182
0.00351824
0.00351825
0.00351825
0.00351825
0.00351824
0.00351824
0.00351824
0.00351825
0.00351825
0.00351825
0.00351825
0.00351825
0.00351825
0.00351824
0.00351824
0.00351823
0.00351819
0.00351808
0.00351784
0.00351736
0.00351652
0.00351522
0.00351372
0.00335206
0.0033536
0.00335486
0.00335566
0.0033561
0.00335631
0.00335641
0.00335645
0.00335646
0.00335647
0.00335647
0.00335646
0.00335646
0.00335646
0.00335646
0.00335646
0.00335646
0.00335646
0.00335646
0.00335646
0.00335645
0.00335645
0.00335644
0.00335641
0.00335631
0.00335608
0.00335563
0.00335481
0.00335356
0.00335207
0.00320493
0.00320646
0.00320767
0.00320844
0.00320885
0.00320906
0.00320915
0.00320918
0.00320919
0.0032092
0.0032092
0.0032092
0.0032092
0.0032092
0.00320919
0.00320919
0.00320919
0.00320919
0.00320919
0.00320919
0.00320919
0.00320918
0.00320918
0.00320915
0.00320906
0.00320884
0.00320841
0.00320763
0.00320642
0.00320495
0.00307047
0.003072
0.00307317
0.0030739
0.0030743
0.00307449
0.00307457
0.0030746
0.00307461
0.00307461
0.00307462
0.00307461
0.00307461
0.00307461
0.00307461
0.0030746
0.0030746
0.0030746
0.00307461
0.00307461
0.0030746
0.0030746
0.0030746
0.00307457
0.00307449
0.00307429
0.00307387
0.00307313
0.00307196
0.0030705
0.00294718
0.00294871
0.00294984
0.00295054
0.00295092
0.00295109
0.00295116
0.00295119
0.00295119
0.0029512
0.0029512
0.0029512
0.0029512
0.00295119
0.00295119
0.00295118
0.00295118
0.00295118
0.00295119
0.00295119
0.00295119
0.00295119
0.00295119
0.00295116
0.00295108
0.0029509
0.00295051
0.0029498
0.00294868
0.00294722
0.00283391
0.00283543
0.00283652
0.00283718
0.00283753
0.00283768
0.00283774
0.00283776
0.00283776
0.00283777
0.00283777
0.00283777
0.00283776
0.00283776
0.00283775
0.00283775
0.00283775
0.00283776
0.00283776
0.00283777
0.00283777
0.00283777
0.00283776
0.00283774
0.00283767
0.0028375
0.00283714
0.00283647
0.0028354
0.00283396
0.00273002
0.00273151
0.00273254
0.00273314
0.00273344
0.00273358
0.00273363
0.00273364
0.00273364
0.00273364
0.00273364
0.00273364
0.00273363
0.00273363
0.00273362
0.00273362
0.00273363
0.00273363
0.00273364
0.00273364
0.00273364
0.00273364
0.00273364
0.00273362
0.00273356
0.00273341
0.0027331
0.00273249
0.00273148
0.00273007
0.00263603
0.00263744
0.00263835
0.00263885
0.0026391
0.0026392
0.00263923
0.00263924
0.00263924
0.00263924
0.00263924
0.00263923
0.00263923
0.00263923
0.00263922
0.00263922
0.00263923
0.00263923
0.00263923
0.00263923
0.00263923
0.00263923
0.00263923
0.00263922
0.00263918
0.00263907
0.00263881
0.0026383
0.0026374
0.00263608
0.00255549
0.00255673
0.00255744
0.00255781
0.00255796
0.00255802
0.00255804
0.00255804
0.00255804
0.00255804
0.00255804
0.00255804
0.00255804
0.00255804
0.00255803
0.00255804
0.00255804
0.00255804
0.00255804
0.00255803
0.00255803
0.00255803
0.00255803
0.00255803
0.002558
0.00255794
0.00255777
0.0025574
0.00255669
0.00255553
0.00250024
0.00250122
0.0025017
0.00250191
0.00250198
0.002502
0.00250201
0.002502
0.00250201
0.00250201
0.00250201
0.00250201
0.00250201
0.00250201
0.00250201
0.00250202
0.00250202
0.00250201
0.00250201
0.00250201
0.002502
0.002502
0.002502
0.002502
0.00250199
0.00250196
0.00250188
0.00250166
0.00250118
0.00250026
0.0825584
0.0825569
0.0825538
0.0825519
0.0825501
0.0825489
0.0825492
0.0825501
0.082551
0.0825517
0.08255
0.0825468
0.0825444
0.0825463
0.0825502
0.0825512
0.0825489
0.0825468
0.0825468
0.0825475
0.0825477
0.0825487
0.0825506
0.0825523
0.082554
0.0825557
0.0825569
0.0825577
0.0825602
0.0825624
0.046086
0.0460854
0.0460852
0.046085
0.0460856
0.0460869
0.0460881
0.0460892
0.0460901
0.0460902
0.046089
0.0460874
0.0460868
0.0460874
0.0460882
0.0460882
0.046088
0.0460881
0.0460884
0.0460884
0.0460882
0.0460878
0.0460872
0.0460863
0.0460855
0.0460846
0.0460841
0.0460839
0.0460839
0.0460846
0.0284312
0.0284323
0.0284334
0.0284341
0.0284352
0.0284364
0.0284373
0.028438
0.0284385
0.0284386
0.0284384
0.028438
0.0284379
0.0284382
0.0284383
0.0284383
0.0284383
0.0284383
0.0284383
0.0284381
0.0284378
0.0284374
0.0284369
0.0284362
0.0284353
0.0284343
0.0284332
0.0284321
0.0284308
0.0284299
0.0203225
0.0203247
0.0203267
0.0203279
0.020329
0.0203299
0.0203306
0.0203311
0.0203315
0.0203318
0.0203319
0.0203319
0.0203321
0.0203322
0.0203323
0.0203323
0.0203323
0.0203322
0.020332
0.0203318
0.0203316
0.0203313
0.020331
0.0203304
0.0203297
0.0203287
0.0203275
0.0203261
0.0203241
0.0203219
0.0158193
0.0158223
0.0158248
0.0158263
0.0158274
0.0158281
0.0158287
0.0158291
0.0158295
0.0158298
0.01583
0.0158303
0.0158305
0.0158306
0.0158307
0.0158306
0.0158306
0.0158304
0.0158303
0.0158301
0.0158299
0.0158297
0.0158294
0.015829
0.0158283
0.0158274
0.0158262
0.0158246
0.0158221
0.015819
0.0129621
0.0129655
0.0129684
0.0129702
0.0129712
0.0129719
0.0129723
0.0129727
0.012973
0.0129733
0.0129736
0.0129739
0.0129741
0.0129742
0.0129742
0.0129742
0.0129741
0.012974
0.0129738
0.0129737
0.0129735
0.0129733
0.0129731
0.0129726
0.012972
0.0129712
0.0129701
0.0129683
0.0129653
0.0129619
0.0109833
0.010987
0.0109902
0.0109921
0.0109931
0.0109938
0.0109941
0.0109944
0.0109947
0.0109949
0.0109952
0.0109954
0.0109956
0.0109957
0.0109957
0.0109957
0.0109956
0.0109955
0.0109954
0.0109952
0.0109951
0.0109949
0.0109947
0.0109943
0.0109937
0.010993
0.0109919
0.0109899
0.0109867
0.0109831
0.00952996
0.00953373
0.00953707
0.0095391
0.00954022
0.00954083
0.0095412
0.00954145
0.00954165
0.00954183
0.00954202
0.00954221
0.00954234
0.00954241
0.00954242
0.0095424
0.00954234
0.00954225
0.00954215
0.00954205
0.00954192
0.00954175
0.00954151
0.00954119
0.00954074
0.00954004
0.00953885
0.00953677
0.00953345
0.00952975
0.00841667
0.00842043
0.00842387
0.00842601
0.00842719
0.00842783
0.00842819
0.00842842
0.00842857
0.0084287
0.00842884
0.00842898
0.00842907
0.00842911
0.00842912
0.0084291
0.00842906
0.00842899
0.00842891
0.00842882
0.00842871
0.00842857
0.00842839
0.00842814
0.00842773
0.00842704
0.00842579
0.00842364
0.00842025
0.00841656
0.00753643
0.00754013
0.00754362
0.00754583
0.00754705
0.0075477
0.00754806
0.00754827
0.00754839
0.00754849
0.00754859
0.00754868
0.00754874
0.00754876
0.00754876
0.00754875
0.00754872
0.00754867
0.00754861
0.00754854
0.00754846
0.00754836
0.00754823
0.00754801
0.00754763
0.00754693
0.00754567
0.00754348
0.00754006
0.00753637
0.00682303
0.00682669
0.00683016
0.00683238
0.00683361
0.00683425
0.0068346
0.0068348
0.00683491
0.00683499
0.00683506
0.00683512
0.00683515
0.00683516
0.00683516
0.00683516
0.00683515
0.00683511
0.00683507
0.00683502
0.00683496
0.00683488
0.00683477
0.00683457
0.0068342
0.00683351
0.00683225
0.00683006
0.00682664
0.006823
0.00623329
0.00623688
0.0062403
0.00624249
0.0062437
0.00624433
0.00624467
0.00624486
0.00624496
0.00624503
0.00624509
0.00624512
0.00624514
0.00624515
0.00624516
0.00624517
0.00624516
0.00624515
0.00624512
0.00624508
0.00624502
0.00624495
0.00624484
0.00624465
0.0062443
0.00624364
0.00624241
0.00624021
0.00623683
0.00623326
0.00573777
0.00574129
0.00574461
0.00574676
0.00574796
0.00574859
0.00574892
0.00574911
0.00574921
0.00574927
0.00574931
0.00574934
0.00574936
0.00574937
0.00574938
0.00574939
0.0057494
0.00574938
0.00574936
0.00574932
0.00574927
0.00574919
0.00574908
0.0057489
0.00574858
0.00574794
0.00574672
0.00574456
0.00574124
0.00573774
0.0053157
0.00531914
0.00532237
0.00532449
0.00532567
0.00532629
0.00532662
0.0053268
0.00532688
0.00532693
0.00532696
0.00532698
0.005327
0.00532702
0.00532703
0.00532704
0.00532704
0.00532703
0.00532701
0.00532697
0.00532692
0.00532684
0.00532675
0.0053266
0.0053263
0.00532569
0.00532448
0.00532234
0.0053191
0.00531567
0.00495201
0.00495539
0.00495854
0.00496061
0.00496178
0.00496239
0.0049627
0.00496285
0.00496293
0.00496296
0.00496298
0.004963
0.00496302
0.00496303
0.00496305
0.00496305
0.00496305
0.00496304
0.00496302
0.00496298
0.00496294
0.00496288
0.00496281
0.00496267
0.00496239
0.00496179
0.0049606
0.00495851
0.00495536
0.00495199
0.00463552
0.00463885
0.0046419
0.00464392
0.00464507
0.00464566
0.00464595
0.00464608
0.00464614
0.00464616
0.00464618
0.00464619
0.00464621
0.00464622
0.00464623
0.00464623
0.00464623
0.00464622
0.0046462
0.00464618
0.00464615
0.00464611
0.00464605
0.00464593
0.00464565
0.00464506
0.0046439
0.00464186
0.0046388
0.0046355
0.00435771
0.00436099
0.00436396
0.00436592
0.00436703
0.0043676
0.00436787
0.00436799
0.00436803
0.00436805
0.00436806
0.00436806
0.00436807
0.00436808
0.00436809
0.0043681
0.0043681
0.00436809
0.00436808
0.00436807
0.00436805
0.00436802
0.00436797
0.00436785
0.00436758
0.00436701
0.00436588
0.0043639
0.00436093
0.00435769
0.00411201
0.00411526
0.00411812
0.00412002
0.0041211
0.00412164
0.0041219
0.004122
0.00412203
0.00412204
0.00412204
0.00412204
0.00412205
0.00412206
0.00412207
0.00412208
0.00412208
0.00412207
0.00412207
0.00412206
0.00412205
0.00412203
0.00412199
0.00412187
0.00412162
0.00412106
0.00411997
0.00411804
0.00411518
0.00411199
0.00389324
0.00389646
0.00389923
0.00390107
0.0039021
0.00390262
0.00390286
0.00390295
0.00390298
0.00390299
0.00390298
0.00390298
0.00390298
0.00390299
0.003903
0.00390301
0.00390301
0.003903
0.003903
0.003903
0.00390299
0.00390298
0.00390293
0.00390283
0.00390259
0.00390206
0.00390099
0.00389913
0.00389637
0.00389322
0.00369729
0.0037005
0.00370318
0.00370494
0.00370593
0.00370642
0.00370664
0.00370673
0.00370675
0.00370676
0.00370675
0.00370675
0.00370675
0.00370676
0.00370677
0.00370677
0.00370677
0.00370677
0.00370676
0.00370676
0.00370676
0.00370675
0.00370671
0.00370662
0.00370639
0.00370587
0.00370484
0.00370307
0.0037004
0.00369728
0.00352084
0.00352404
0.00352663
0.00352831
0.00352925
0.00352972
0.00352992
0.00353
0.00353003
0.00353004
0.00353003
0.00353003
0.00353003
0.00353004
0.00353004
0.00353004
0.00353004
0.00353004
0.00353004
0.00353004
0.00353003
0.00353003
0.00353
0.00352991
0.00352969
0.00352919
0.00352822
0.00352651
0.00352393
0.00352082
0.00336118
0.00336437
0.00336688
0.00336849
0.00336938
0.00336982
0.00337001
0.00337008
0.00337011
0.00337012
0.00337012
0.00337011
0.00337011
0.00337011
0.00337011
0.00337011
0.00337011
0.00337011
0.00337011
0.00337011
0.00337011
0.0033701
0.00337008
0.00337
0.0033698
0.00336933
0.00336841
0.00336677
0.00336425
0.00336116
0.00321607
0.00321927
0.00322171
0.00322325
0.0032241
0.0032245
0.00322468
0.00322474
0.00322477
0.00322478
0.00322478
0.00322477
0.00322477
0.00322477
0.00322477
0.00322476
0.00322476
0.00322476
0.00322476
0.00322476
0.00322476
0.00322476
0.00322474
0.00322468
0.00322449
0.00322406
0.00322318
0.0032216
0.00321916
0.00321607
0.00308369
0.00308691
0.00308928
0.00309076
0.00309156
0.00309193
0.00309209
0.00309215
0.00309216
0.00309217
0.00309217
0.00309217
0.00309216
0.00309216
0.00309215
0.00309215
0.00309215
0.00309215
0.00309215
0.00309216
0.00309216
0.00309216
0.00309215
0.00309209
0.00309192
0.00309152
0.00309068
0.00308917
0.00308679
0.0030837
0.00296256
0.00296579
0.00296811
0.00296951
0.00297026
0.00297061
0.00297074
0.00297078
0.00297079
0.0029708
0.0029708
0.00297079
0.00297079
0.00297078
0.00297078
0.00297077
0.00297077
0.00297077
0.00297078
0.00297079
0.00297079
0.0029708
0.00297079
0.00297074
0.00297058
0.00297021
0.00296943
0.00296798
0.00296567
0.00296257
0.00285163
0.00285486
0.0028571
0.00285842
0.00285911
0.00285941
0.00285953
0.00285955
0.00285956
0.00285956
0.00285956
0.00285955
0.00285955
0.00285954
0.00285953
0.00285952
0.00285953
0.00285954
0.00285955
0.00285956
0.00285956
0.00285956
0.00285956
0.00285952
0.00285938
0.00285905
0.00285832
0.00285696
0.00285473
0.00285164
0.0027506
0.00275378
0.00275588
0.00275708
0.00275768
0.00275793
0.00275801
0.00275803
0.00275803
0.00275803
0.00275802
0.00275802
0.00275801
0.002758
0.00275799
0.00275799
0.002758
0.00275801
0.00275802
0.00275802
0.00275803
0.00275803
0.00275803
0.002758
0.00275789
0.00275761
0.00275698
0.00275574
0.00275364
0.0027506
0.00266071
0.00266374
0.0026656
0.0026666
0.00266706
0.00266724
0.00266729
0.0026673
0.00266729
0.00266729
0.00266729
0.00266728
0.00266728
0.00266727
0.00266726
0.00266727
0.00266727
0.00266728
0.00266728
0.00266728
0.00266728
0.00266729
0.00266729
0.00266727
0.00266721
0.002667
0.0026665
0.00266546
0.00266359
0.00266071
0.00258666
0.00258935
0.00259082
0.00259153
0.00259182
0.00259191
0.00259192
0.00259191
0.00259191
0.00259191
0.00259191
0.00259191
0.00259191
0.0025919
0.0025919
0.0025919
0.00259191
0.00259191
0.00259191
0.0025919
0.0025919
0.0025919
0.0025919
0.0025919
0.00259188
0.00259176
0.00259144
0.00259068
0.00258918
0.00258663
0.00253945
0.00254164
0.00254267
0.00254309
0.00254322
0.00254323
0.00254322
0.00254321
0.00254321
0.00254321
0.00254322
0.00254322
0.00254322
0.00254322
0.00254322
0.00254322
0.00254322
0.00254322
0.00254321
0.00254321
0.0025432
0.0025432
0.0025432
0.00254321
0.00254321
0.00254317
0.002543
0.00254253
0.00254147
0.00253937
0.0726196
0.0726112
0.072609
0.0726074
0.0726043
0.072601
0.0725997
0.0725998
0.072601
0.0726015
0.0725993
0.0725948
0.0725921
0.0725933
0.0725963
0.0725969
0.0725947
0.0725929
0.0725929
0.0725938
0.0725952
0.0725976
0.0726007
0.0726036
0.0726062
0.0726089
0.0726116
0.0726146
0.0726192
0.0726273
0.045008
0.0450084
0.0450082
0.0450082
0.0450094
0.0450115
0.0450136
0.0450156