/*--------------------------------*- C++ -*----------------------------------*\
| =========                 |                                                 |
| \\      /  F ield         | OpenFOAM: The Open Source CFD Toolbox           |
|  \\    /   O peration     | Version:  2506                                  |
|   \\  /    A nd           | Website:  www.openfoam.com                      |
|    \\/     M anipulation  |                                                 |
\*---------------------------------------------------------------------------*/
FoamFile
{
    version     2.0;
    format      ascii;
    arch        "LSB;label=32;scalar=64";
    class       volScalarField;
    location    "20";
    object      k;
}
// * * * * * * * * * * * * * * * * * * * * * * * * * * * * * * * * * * * * * //

dimensions      [0 2 -2 0 0 0 0];

internalField   nonuniform List<scalar> 
144676
(
0.276008
0.276013
0.276012
0.276011
0.276011
0.276011
0.276011
0.276011
0.27601
0.27601
0.27601
0.276009
0.276007
0.276006
0.276009
0.276012
0.276012
0.276012
0.276012
0.276013
0.276013
0.276012
0.276013
0.276012
0.276011
0.276011
0.276011
0.276012
0.276014
0.276012
0.320334
0.320333
0.320332
0.320332
0.320333
0.320335
0.320336
0.320336
0.320335
0.320334
0.320332
0.32033
0.320329
0.320331
0.320333
0.320334
0.320333
0.320334
0.320334
0.320334
0.320334
0.320334
0.320333
0.320332
0.32033
0.32033
0.320331
0.320332
0.320332
0.320334
0.319055
0.319052
0.319053
0.319054
0.319056
0.319058
0.319059
0.319059
0.319059
0.319058
0.319057
0.319057
0.319056
0.319057
0.319057
0.319057
0.319057
0.319057
0.319057
0.319057
0.319057
0.319056
0.319056
0.319055
0.319053
0.319052
0.319051
0.319051
0.31905
0.319053
0.318694
0.318691
0.318694
0.318696
0.318698
0.3187
0.318701
0.318701
0.318701
0.318701
0.318701
0.318701
0.318701
0.318702
0.318702
0.318701
0.318701
0.318701
0.318701
0.318701
0.318701
0.3187
0.3187
0.318699
0.318698
0.318696
0.318694
0.318692
0.318691
0.318693
0.318623
0.318623
0.318627
0.31863
0.318633
0.318635
0.318636
0.318636
0.318636
0.318637
0.318638
0.318638
0.318639
0.318639
0.318639
0.318639
0.318639
0.318638
0.318638
0.318637
0.318637
0.318637
0.318637
0.318636
0.318635
0.318632
0.31863
0.318627
0.318624
0.318623
0.318635
0.318636
0.318642
0.318647
0.31865
0.318651
0.318652
0.318652
0.318653
0.318654
0.318655
0.318656
0.318656
0.318657
0.318657
0.318656
0.318656
0.318656
0.318655
0.318655
0.318655
0.318655
0.318655
0.318653
0.318652
0.318649
0.318646
0.318643
0.318637
0.318635
0.318661
0.318664
0.318672
0.318678
0.318681
0.318682
0.318683
0.318684
0.318685
0.318685
0.318686
0.318687
0.318687
0.318688
0.318687
0.318687
0.318687
0.318687
0.318686
0.318686
0.318686
0.318686
0.318685
0.318684
0.318682
0.318679
0.318676
0.318671
0.318664
0.31866
0.318684
0.31869
0.3187
0.318706
0.318709
0.318711
0.318712
0.318713
0.318714
0.318714
0.318715
0.318715
0.318716
0.318716
0.318716
0.318716
0.318715
0.318715
0.318715
0.318715
0.318715
0.318715
0.318714
0.318712
0.31871
0.318708
0.318704
0.318698
0.318689
0.318683
0.318703
0.31871
0.318721
0.318728
0.318732
0.318734
0.318736
0.318737
0.318737
0.318738
0.318738
0.318738
0.318739
0.318739
0.318739
0.318738
0.318738
0.318738
0.318738
0.318738
0.318738
0.318737
0.318736
0.318735
0.318733
0.318731
0.318726
0.318719
0.318709
0.318702
0.318715
0.318723
0.318736
0.318744
0.318749
0.318751
0.318753
0.318754
0.318755
0.318755
0.318755
0.318755
0.318755
0.318755
0.318755
0.318755
0.318755
0.318755
0.318755
0.318755
0.318754
0.318754
0.318753
0.318752
0.318751
0.318748
0.318743
0.318735
0.318723
0.318714
0.318722
0.318732
0.318745
0.318754
0.318759
0.318762
0.318764
0.318765
0.318765
0.318765
0.318766
0.318766
0.318766
0.318766
0.318766
0.318765
0.318765
0.318765
0.318765
0.318765
0.318765
0.318765
0.318764
0.318763
0.318762
0.318758
0.318753
0.318744
0.318731
0.318721
0.318724
0.318735
0.31875
0.31876
0.318765
0.318767
0.318769
0.31877
0.31877
0.318771
0.318771
0.318771
0.318771
0.318771
0.318771
0.318771
0.318771
0.318771
0.318771
0.318771
0.318771
0.31877
0.31877
0.318769
0.318767
0.318764
0.318758
0.318749
0.318735
0.318723
0.318723
0.318735
0.31875
0.31876
0.318765
0.318768
0.318769
0.318771
0.318771
0.318771
0.318772
0.318772
0.318772
0.318772
0.318772
0.318772
0.318772
0.318772
0.318772
0.318772
0.318772
0.318771
0.318771
0.31877
0.318768
0.318765
0.31876
0.31875
0.318734
0.318722
0.318718
0.31873
0.318746
0.318757
0.318762
0.318765
0.318767
0.318768
0.318768
0.318769
0.318769
0.318769
0.318769
0.318769
0.318769
0.318769
0.318769
0.318769
0.318769
0.318769
0.318769
0.318768
0.318768
0.318767
0.318765
0.318763
0.318757
0.318747
0.31873
0.318717
0.31871
0.318723
0.31874
0.318751
0.318757
0.31876
0.318761
0.318762
0.318762
0.318762
0.318762
0.318762
0.318762
0.318762
0.318762
0.318762
0.318762
0.318762
0.318763
0.318763
0.318762
0.318762
0.318762
0.318761
0.31876
0.318757
0.318751
0.31874
0.318724
0.31871
0.318701
0.318714
0.318731
0.318742
0.318748
0.318751
0.318753
0.318753
0.318753
0.318753
0.318753
0.318753
0.318753
0.318753
0.318753
0.318753
0.318753
0.318753
0.318753
0.318753
0.318753
0.318753
0.318753
0.318752
0.318751
0.318748
0.318742
0.318731
0.318714
0.3187
0.31869
0.318704
0.31872
0.318731
0.318737
0.31874
0.318742
0.318742
0.318742
0.318741
0.318741
0.318741
0.318741
0.318741
0.318741
0.318741
0.318741
0.318742
0.318742
0.318742
0.318742
0.318742
0.318742
0.318741
0.31874
0.318737
0.318731
0.31872
0.318703
0.318689
0.318678
0.318691
0.318707
0.318718
0.318724
0.318727
0.318728
0.318728
0.318728
0.318728
0.318728
0.318727
0.318727
0.318727
0.318727
0.318728
0.318728
0.318728
0.318728
0.318728
0.318728
0.318728
0.318728
0.318728
0.318726
0.318724
0.318717
0.318706
0.31869
0.318677
0.318665
0.318678
0.318693
0.318703
0.318709
0.318712
0.318713
0.318713
0.318713
0.318713
0.318712
0.318712
0.318712
0.318712
0.318712
0.318712
0.318712
0.318712
0.318712
0.318713
0.318713
0.318713
0.318713
0.318712
0.318711
0.318709
0.318703
0.318692
0.318677
0.318664
0.318652
0.318663
0.318677
0.318687
0.318693
0.318695
0.318696
0.318697
0.318696
0.318696
0.318696
0.318696
0.318695
0.318696
0.318696
0.318696
0.318696
0.318696
0.318696
0.318696
0.318696
0.318696
0.318696
0.318696
0.318695
0.318692
0.318686
0.318676
0.318662
0.31865
0.318637
0.318648
0.318661
0.31867
0.318675
0.318677
0.318678
0.318679
0.318679
0.318678
0.318678
0.318678
0.318678
0.318678
0.318678
0.318678
0.318678
0.318678
0.318678
0.318678
0.318678
0.318678
0.318678
0.318678
0.318677
0.318675
0.318669
0.31866
0.318647
0.318636
0.318623
0.318632
0.318644
0.318652
0.318657
0.318659
0.318659
0.31866
0.31866
0.31866
0.31866
0.31866
0.318659
0.318659
0.318659
0.318659
0.318659
0.318659
0.318659
0.318659
0.318659
0.318659
0.318659
0.318659
0.318659
0.318656
0.318652
0.318643
0.318631
0.318621
0.318608
0.318616
0.318626
0.318633
0.318637
0.318639
0.31864
0.31864
0.31864
0.31864
0.31864
0.31864
0.31864
0.31864
0.31864
0.31864
0.31864
0.31864
0.31864
0.31864
0.31864
0.31864
0.31864
0.31864
0.318639
0.318637
0.318633
0.318626
0.318615
0.318607
0.318593
0.318599
0.318608
0.318614
0.318618
0.318619
0.31862
0.31862
0.31862
0.31862
0.31862
0.31862
0.31862
0.31862
0.318619
0.318619
0.318619
0.318619
0.318619
0.318619
0.318619
0.318619
0.31862
0.31862
0.318619
0.318618
0.318614
0.318608
0.318599
0.318592
0.318578
0.318582
0.318589
0.318594
0.318597
0.318598
0.318598
0.318598
0.318598
0.318598
0.318598
0.318598
0.318598
0.318598
0.318598
0.318598
0.318598
0.318598
0.318598
0.318598
0.318598
0.318598
0.318598
0.318598
0.318598
0.318597
0.318594
0.318589
0.318581
0.318576
0.318561
0.318564
0.31857
0.318573
0.318575
0.318576
0.318576
0.318576
0.318575
0.318575
0.318575
0.318575
0.318575
0.318575
0.318575
0.318575
0.318575
0.318575
0.318575
0.318575
0.318575
0.318575
0.318576
0.318576
0.318576
0.318575
0.318573
0.318569
0.318563
0.31856
0.318544
0.318545
0.318548
0.31855
0.318551
0.318551
0.318551
0.31855
0.31855
0.31855
0.31855
0.31855
0.31855
0.31855
0.31855
0.31855
0.31855
0.31855
0.31855
0.31855
0.31855
0.31855
0.31855
0.318551
0.318551
0.31855
0.31855
0.318548
0.318544
0.318542
0.318523
0.318522
0.318523
0.318522
0.318521
0.318521
0.31852
0.31852
0.318519
0.318519
0.318519
0.318519
0.318519
0.318519
0.318519
0.318519
0.318519
0.318519
0.318519
0.318519
0.318519
0.318519
0.31852
0.31852
0.318521
0.318521
0.318522
0.318522
0.318522
0.318522
0.318497
0.318493
0.318489
0.318485
0.318483
0.318481
0.31848
0.318479
0.318479
0.318479
0.318479
0.318479
0.318479
0.318479
0.318479
0.318479
0.318479
0.318479
0.318479
0.318479
0.318479
0.318479
0.318479
0.31848
0.318481
0.318483
0.318486
0.318489
0.318493
0.318497
0.318472
0.318463
0.318454
0.318447
0.318443
0.31844
0.318439
0.318438
0.318438
0.318438
0.318438
0.318438
0.318438
0.318438
0.318438
0.318438
0.318438
0.318438
0.318438
0.318438
0.318438
0.318438
0.318438
0.318438
0.31844
0.318443
0.318448
0.318455
0.318464
0.318472
0.243663
0.243671
0.243669
0.243668
0.243667
0.243666
0.243665
0.243664
0.243663
0.243663
0.243662
0.243659
0.243656
0.243657
0.243662
0.243666
0.243666
0.243665
0.243667
0.243668
0.243668
0.243668
0.243669
0.243668
0.243666
0.243667
0.24367
0.243673
0.243676
0.243669
0.320032
0.320034
0.320033
0.320032
0.320034
0.320036
0.320039
0.32004
0.320041
0.32004
0.320035
0.32003
0.320029
0.320032
0.320035
0.320036
0.320035
0.320036
0.320037
0.320037
0.320036
0.320036
0.320034
0.320032
0.32003
0.320029
0.32003
0.320031
0.320032
0.320029
0.319681
0.319682
0.319685
0.319688
0.319691
0.319696
0.319698
0.319699
0.3197
0.319699
0.319697
0.319695
0.319695
0.319696
0.319696
0.319696
0.319696
0.319697
0.319697
0.319696
0.319696
0.319695
0.319693
0.31969
0.319688
0.319685
0.319682
0.319679
0.319676
0.319675
0.318948
0.318955
0.318962
0.318968
0.318974
0.318978
0.318981
0.318982
0.318983
0.318984
0.318984
0.318984
0.318984
0.318985
0.318985
0.318985
0.318985
0.318985
0.318984
0.318983
0.318982
0.318982
0.31898
0.318978
0.318974
0.31897
0.318965
0.318959
0.318951
0.318945
0.318679
0.318692
0.318705
0.318715
0.318722
0.318726
0.318729
0.318731
0.318732
0.318734
0.318736
0.318737
0.318739
0.318739
0.31874
0.318739
0.318739
0.318738
0.318737
0.318736
0.318736
0.318735
0.318734
0.318731
0.318727
0.318721
0.318714
0.318705
0.318692
0.318678
0.318614
0.318633
0.318653
0.318666
0.318674
0.318678
0.318681
0.318683
0.318685
0.318688
0.31869
0.318692
0.318694
0.318695
0.318695
0.318695
0.318694
0.318693
0.318692
0.318691
0.318691
0.31869
0.318688
0.318685
0.31868
0.318673
0.318665
0.318652
0.318633
0.318613
0.318605
0.31863
0.318656
0.318672
0.318682
0.318687
0.31869
0.318692
0.318694
0.318697
0.318699
0.318701
0.318703
0.318704
0.318704
0.318703
0.318703
0.318702
0.318701
0.3187
0.318699
0.318698
0.318696
0.318692
0.318687
0.318679
0.318669
0.318653
0.318628
0.318603
0.318608
0.318638
0.318669
0.318689
0.3187
0.318706
0.318709
0.318712
0.318714
0.318716
0.318718
0.318719
0.318721
0.318721
0.318722
0.318721
0.31872
0.31872
0.318719
0.318718
0.318717
0.318716
0.318713
0.318709
0.318704
0.318696
0.318684
0.318665
0.318634
0.318605
0.318607
0.318641
0.318677
0.318701
0.318714
0.318721
0.318725
0.318728
0.31873
0.318731
0.318733
0.318734
0.318735
0.318736
0.318736
0.318735
0.318735
0.318734
0.318733
0.318733
0.318732
0.31873
0.318727
0.318724
0.318719
0.318711
0.318697
0.318673
0.318639
0.318605
0.3186
0.318637
0.318677
0.318704
0.318719
0.318727
0.318732
0.318735
0.318737
0.318738
0.318739
0.31874
0.318741
0.318741
0.318741
0.318741
0.31874
0.31874
0.318739
0.318738
0.318737
0.318736
0.318734
0.318731
0.318726
0.318717
0.318701
0.318674
0.318636
0.318599
0.318586
0.318625
0.318668
0.318697
0.318714
0.318723
0.318728
0.318731
0.318733
0.318734
0.318735
0.318736
0.318736
0.318736
0.318736
0.318736
0.318736
0.318735
0.318735
0.318734
0.318733
0.318732
0.318731
0.318728
0.318722
0.318712
0.318695
0.318666
0.318624
0.318584
0.318565
0.318606
0.318651
0.318682
0.318699
0.318709
0.318714
0.318717
0.318719
0.31872
0.318721
0.318722
0.318722
0.318722
0.318722
0.318722
0.318722
0.318722
0.318721
0.318721
0.31872
0.318719
0.318717
0.318714
0.318708
0.318698
0.31868
0.31865
0.318605
0.318563
0.318539
0.31858
0.318627
0.318659
0.318676
0.318686
0.318692
0.318695
0.318697
0.318698
0.318699
0.318699
0.3187
0.3187
0.3187
0.3187
0.3187
0.3187
0.3187
0.318699
0.318698
0.318697
0.318695
0.318692
0.318686
0.318676
0.318658
0.318626
0.318579
0.318537
0.318509
0.31855
0.318597
0.318629
0.318647
0.318658
0.318663
0.318667
0.318668
0.318669
0.31867
0.31867
0.31867
0.318671
0.318671
0.318671
0.318671
0.318671
0.318671
0.31867
0.318669
0.318668
0.318666
0.318663
0.318658
0.318648
0.318629
0.318597
0.318549
0.318507
0.318475
0.318515
0.318562
0.318595
0.318614
0.318624
0.31863
0.318633
0.318634
0.318634
0.318635
0.318635
0.318635
0.318636
0.318636
0.318636
0.318636
0.318636
0.318636
0.318635
0.318634
0.318633
0.318631
0.318629
0.318624
0.318614
0.318595
0.318562
0.318515
0.318474
0.31844
0.318478
0.318524
0.318557
0.318576
0.318586
0.318591
0.318593
0.318594
0.318595
0.318595
0.318595
0.318595
0.318596
0.318596
0.318596
0.318596
0.318596
0.318596
0.318595
0.318595
0.318594
0.318593
0.31859
0.318586
0.318576
0.318556
0.318524
0.318477
0.318437
0.318403
0.318439
0.318483
0.318515
0.318534
0.318544
0.318548
0.31855
0.318551
0.318551
0.318551
0.318551
0.318552
0.318552
0.318552
0.318552
0.318552
0.318552
0.318552
0.318552
0.318552
0.318551
0.31855
0.318548
0.318543
0.318533
0.318514
0.318483
0.318438
0.3184
0.318366
0.318399
0.318441
0.318471
0.318489
0.318499
0.318503
0.318505
0.318505
0.318505
0.318505
0.318505
0.318505
0.318505
0.318505
0.318506
0.318506
0.318506
0.318506
0.318506
0.318506
0.318505
0.318504
0.318502
0.318498
0.318488
0.31847
0.31844
0.318397
0.318362
0.318328
0.318358
0.318397
0.318426
0.318443
0.318452
0.318456
0.318457
0.318458
0.318457
0.318457
0.318457
0.318457
0.318457
0.318457
0.318458
0.318458
0.318458
0.318458
0.318458
0.318457
0.318457
0.318456
0.318455
0.318451
0.318442
0.318425
0.318396
0.318356
0.318325
0.318292
0.318318
0.318354
0.31838
0.318396
0.318403
0.318407
0.318408
0.318409
0.318408
0.318408
0.318408
0.318408
0.318408
0.318408
0.318409
0.318409
0.318408
0.318408
0.318408
0.318408
0.318408
0.318407
0.318406
0.318403
0.318394
0.318378
0.318352
0.318316
0.318288
0.318257
0.318279
0.31831
0.318334
0.318348
0.318355
0.318358
0.318359
0.318359
0.318359
0.318359
0.318359
0.318359
0.318359
0.318359
0.318359
0.318359
0.318359
0.318359
0.318359
0.318359
0.318359
0.318358
0.318357
0.318354
0.318346
0.318332
0.318308
0.318276
0.318252
0.318223
0.318241
0.318268
0.318288
0.3183
0.318306
0.318308
0.318309
0.31831
0.31831
0.31831
0.31831
0.31831
0.31831
0.31831
0.31831
0.31831
0.31831
0.31831
0.318309
0.318309
0.318309
0.318309
0.318308
0.318306
0.318299
0.318287
0.318266
0.318238
0.318219
0.318192
0.318204
0.318227
0.318244
0.318253
0.318258
0.31826
0.318261
0.318261
0.318261
0.318261
0.318261
0.318261
0.318261
0.318261
0.318261
0.318261
0.318261
0.318261
0.318261
0.318261
0.318261
0.318261
0.31826
0.318259
0.318253
0.318243
0.318225
0.318202
0.318187
0.318162
0.31817
0.318188
0.318201
0.318208
0.318212
0.318213
0.318213
0.318213
0.318213
0.318213
0.318213
0.318213
0.318213
0.318213
0.318213
0.318212
0.318213
0.318213
0.318213
0.318213
0.318213
0.318213
0.318213
0.318212
0.318208
0.3182
0.318186
0.318168
0.318157
0.318133
0.318137
0.31815
0.318159
0.318164
0.318166
0.318166
0.318166
0.318166
0.318166
0.318166
0.318166
0.318166
0.318165
0.318165
0.318165
0.318165
0.318165
0.318165
0.318165
0.318166
0.318166
0.318166
0.318166
0.318166
0.318164
0.318158
0.318148
0.318135
0.318129
0.318105
0.318105
0.318112
0.318117
0.318119
0.318119
0.318118
0.318117
0.318117
0.318117
0.318117
0.318117
0.318116
0.318116
0.318116
0.318116
0.318116
0.318116
0.318116
0.318117
0.318117
0.318117
0.318118
0.318118
0.318119
0.318118
0.318116
0.31811
0.318103
0.318101
0.318075
0.31807
0.318071
0.31807
0.318069
0.318066
0.318064
0.318063
0.318062
0.318061
0.318061
0.318061
0.318061
0.318061
0.318061
0.31806
0.318061
0.318061
0.318061
0.318061
0.318061
0.318062
0.318063
0.318064
0.318066
0.318068
0.318069
0.31807
0.318068
0.318072
0.318038
0.318027
0.318019
0.318011
0.318004
0.317999
0.317996
0.317993
0.317992
0.317992
0.317992
0.317992
0.317992
0.317991
0.317991
0.317991
0.317992
0.317992
0.317992
0.317992
0.317992
0.317992
0.317993
0.317995
0.317999
0.318004
0.318011
0.318019
0.318026
0.318036
0.317991
0.317971
0.317951
0.317934
0.317921
0.317912
0.317907
0.317905
0.317904
0.317903
0.317903
0.317903
0.317903
0.317903
0.317903
0.317903
0.317903
0.317903
0.317903
0.317903
0.317903
0.317903
0.317904
0.317907
0.317912
0.317921
0.317934
0.317952
0.317972
0.317991
0.317956
0.317926
0.317894
0.317867
0.317849
0.317838
0.317832
0.317829
0.317828
0.317828
0.317828
0.317828
0.317828
0.317828
0.317828
0.317828
0.317828
0.317828
0.317828
0.317827
0.317827
0.317827
0.317828
0.317831
0.317838
0.317849
0.317868
0.317895
0.317928
0.317958
0.219764
0.219772
0.21977
0.219768
0.219766
0.219763
0.219761
0.21976
0.21976
0.219761
0.21976
0.219755
0.219751
0.219752
0.219757
0.219759
0.219758
0.219758
0.21976
0.219763
0.219765
0.219766
0.219767
0.219766
0.219766
0.219769
0.219773
0.219776
0.219779
0.21977
0.318529
0.318533
0.318531
0.318529
0.318531
0.318535
0.31854
0.318544
0.318547
0.318547
0.318541
0.318534
0.318531
0.318534
0.318538
0.318538
0.318537
0.318538
0.31854
0.31854
0.31854
0.318538
0.318536
0.318532
0.318529
0.318527
0.318526
0.318528
0.318528
0.318524
0.320223
0.320233
0.32024
0.320245
0.320251
0.320258
0.320264
0.320268
0.320271
0.320271
0.320269
0.320266
0.320265
0.320266
0.320268
0.320268
0.320268
0.320268
0.320268
0.320267
0.320266
0.320263
0.32026
0.320256
0.320251
0.320245
0.320238
0.320232
0.320223
0.320214
0.319287
0.31931
0.319328
0.31934
0.31935
0.319359
0.319365
0.319369
0.319372
0.319374
0.319375
0.319375
0.319376
0.319377
0.319378
0.319378
0.319378
0.319377
0.319376
0.319374
0.319373
0.31937
0.319367
0.319363
0.319356
0.319347
0.319336
0.319323
0.319303
0.319281
0.318777
0.318813
0.318843
0.318863
0.318877
0.318886
0.318892
0.318897
0.318901
0.318905
0.318908
0.31891
0.318913
0.318914
0.318915
0.318915
0.318914
0.318912
0.31891
0.318908
0.318907
0.318904
0.318901
0.318896
0.318888
0.318877
0.318862
0.318841
0.31881
0.318774
0.318574
0.318621
0.318664
0.318692
0.318709
0.318719
0.318726
0.318731
0.318735
0.31874
0.318744
0.318748
0.318751
0.318753
0.318753
0.318753
0.318751
0.318749
0.318747
0.318745
0.318743
0.318741
0.318737
0.318731
0.318722
0.318709
0.318691
0.318662
0.318618
0.31857
0.318477
0.318534
0.318589
0.318624
0.318645
0.318657
0.318664
0.318669
0.318673
0.318677
0.318682
0.318686
0.318689
0.318691
0.318691
0.31869
0.318689
0.318687
0.318685
0.318683
0.318681
0.318678
0.318673
0.318666
0.318657
0.318643
0.318621
0.318584
0.318529
0.318471
0.318413
0.318478
0.318543
0.318586
0.318611
0.318625
0.318632
0.318638
0.318641
0.318645
0.318649
0.318653
0.318656
0.318657
0.318657
0.318657
0.318655
0.318653
0.318651
0.318649
0.318647
0.318644
0.318639
0.318633
0.318623
0.318608
0.318581
0.318537
0.318472
0.318408
0.318357
0.318427
0.318502
0.318552
0.318581
0.318596
0.318605
0.31861
0.318614
0.318617
0.31862
0.318623
0.318625
0.318626
0.318626
0.318626
0.318625
0.318623
0.318622
0.31862
0.318617
0.318614
0.31861
0.318604
0.318594
0.318577
0.318547
0.318497
0.318423
0.318354
0.3183
0.318373
0.318454
0.31851
0.318542
0.31856
0.31857
0.318575
0.318579
0.318581
0.318584
0.318586
0.318587
0.318588
0.318588
0.318588
0.318587
0.318586
0.318584
0.318582
0.31858
0.318578
0.318575
0.318569
0.318558
0.318539
0.318506
0.318451
0.318371
0.318297
0.318238
0.318313
0.318398
0.318458
0.318493
0.318512
0.318523
0.318528
0.318531
0.318534
0.318536
0.318537
0.318538
0.318538
0.318538
0.318538
0.318538
0.318537
0.318536
0.318534
0.318533
0.318531
0.318528
0.318522
0.318511
0.31849
0.318455
0.318396
0.318311
0.318236
0.318173
0.318247
0.318335
0.318397
0.318433
0.318453
0.318463
0.318469
0.318473
0.318475
0.318476
0.318477
0.318478
0.318478
0.318479
0.318479
0.318479
0.318478
0.318477
0.318476
0.318474
0.318472
0.318469
0.318463
0.318452
0.318431
0.318394
0.318333
0.318246
0.31817
0.318105
0.318177
0.318265
0.318327
0.318364
0.318384
0.318395
0.318401
0.318405
0.318406
0.318408
0.318409
0.318409
0.31841
0.31841
0.31841
0.318411
0.31841
0.318409
0.318408
0.318406
0.318404
0.3184
0.318394
0.318384
0.318364
0.318326
0.318263
0.318176
0.318101
0.318035
0.318104
0.31819
0.318252
0.318289
0.318309
0.31832
0.318326
0.318329
0.318331
0.318332
0.318333
0.318333
0.318334
0.318334
0.318335
0.318335
0.318334
0.318334
0.318332
0.31833
0.318328
0.318325
0.318319
0.318309
0.31829
0.318252
0.318189
0.318103
0.318031
0.317964
0.318029
0.318112
0.318173
0.318209
0.31823
0.31824
0.318246
0.318249
0.31825
0.318251
0.318251
0.318252
0.318253
0.318253
0.318253
0.318253
0.318253
0.318252
0.318251
0.318249
0.318247
0.318244
0.318239
0.31823
0.31821
0.318174
0.318112
0.318028
0.317961
0.317895
0.317954
0.318033
0.318092
0.318127
0.318147
0.318157
0.318162
0.318164
0.318165
0.318165
0.318166
0.318167
0.318167
0.318168
0.318168
0.318168
0.318167
0.318166
0.318166
0.318164
0.318163
0.31816
0.318156
0.318147
0.318128
0.318092
0.318033
0.317953
0.317891
0.317827
0.317881
0.317954
0.31801
0.318044
0.318062
0.318071
0.318075
0.318077
0.318078
0.318078
0.318078
0.318079
0.318079
0.31808
0.31808
0.31808
0.318079
0.318079
0.318078
0.318078
0.318077
0.318075
0.318071
0.318062
0.318043
0.318009
0.317953
0.317879
0.317823
0.317762
0.317809
0.317876
0.317928
0.317959
0.317977
0.317985
0.317988
0.31799
0.31799
0.31799
0.31799
0.31799
0.317991
0.317991
0.317991
0.317991
0.317991
0.317991
0.317991
0.31799
0.317989
0.317988
0.317984
0.317976
0.317959
0.317927
0.317875
0.317807
0.317758
0.317701
0.31774
0.3178
0.317847
0.317876
0.317892
0.317899
0.317902
0.317903
0.317903
0.317902
0.317902
0.317902
0.317903
0.317903
0.317904
0.317904
0.317903
0.317903
0.317903
0.317903
0.317902
0.317901
0.317898
0.317891
0.317875
0.317845
0.317798
0.317737
0.317696
0.317643
0.317675
0.317727
0.317769
0.317795
0.317808
0.317814
0.317816
0.317817
0.317817
0.317817
0.317816
0.317817
0.317817
0.317818
0.317818
0.317818
0.317818
0.317817
0.317817
0.317817
0.317817
0.317816
0.317813
0.317807
0.317793
0.317766
0.317725
0.317671
0.317638
0.31759
0.317614
0.317658
0.317694
0.317716
0.317727
0.317732
0.317734
0.317734
0.317734
0.317734
0.317734
0.317734
0.317734
0.317735
0.317735
0.317735
0.317734
0.317734
0.317734
0.317734
0.317734
0.317733
0.317732
0.317726
0.317714
0.317691
0.317655
0.31761
0.317584
0.317543
0.317558
0.317594
0.317623
0.317641
0.31765
0.317653
0.317654
0.317655
0.317655
0.317655
0.317655
0.317655
0.317655
0.317655
0.317655
0.317655
0.317655
0.317655
0.317655
0.317655
0.317655
0.317655
0.317653
0.317649
0.31764
0.317621
0.317591
0.317554
0.317537
0.317501
0.317508
0.317535
0.317558
0.317571
0.317577
0.317579
0.31758
0.31758
0.31758
0.31758
0.31758
0.31758
0.31758
0.31758
0.31758
0.317579
0.317579
0.317579
0.317579
0.317579
0.31758
0.31758
0.31758
0.317577
0.317571
0.317556
0.317533
0.317505
0.317495
0.317465
0.317464
0.317483
0.317498
0.317506
0.31751
0.31751
0.31751
0.317509
0.317509
0.317509
0.317509
0.317509
0.317509
0.317509
0.317508
0.317508
0.317508
0.317508
0.317509
0.317509
0.317509
0.31751
0.317511
0.31751
0.317506
0.317497
0.31748
0.317461
0.317459
0.317434
0.317426
0.317435
0.317443
0.317446
0.317446
0.317445
0.317443
0.317442
0.317442
0.317442
0.317442
0.317441
0.317441
0.317441
0.31744
0.31744
0.31744
0.317441
0.317441
0.317442
0.317442
0.317444
0.317445
0.317446
0.317446
0.317441
0.317433
0.317423
0.317429
0.317407
0.317391
0.31739
0.317389
0.317387
0.317383
0.317379
0.317376
0.317375
0.317374
0.317374
0.317374
0.317373
0.317373
0.317372
0.317372
0.317372
0.317373
0.317373
0.317374
0.317374
0.317375
0.317377
0.317379
0.317382
0.317386
0.317388
0.317388
0.317389
0.317402
0.317381
0.317357
0.317343
0.317332
0.317321
0.317312
0.317306
0.317302
0.3173
0.317299
0.317298
0.317298
0.317298
0.317297
0.317297
0.317297
0.317297
0.317298
0.317298
0.317298
0.317299
0.3173
0.317302
0.317306
0.317312
0.31732
0.317331
0.317342
0.317355
0.317377
0.317353
0.317318
0.317288
0.317262
0.317241
0.317226
0.317217
0.317211
0.317209
0.317208
0.317208
0.317207
0.317207
0.317207
0.317206
0.317206
0.317207
0.317207
0.317207
0.317207
0.317208
0.317209
0.317211
0.317216
0.317226
0.31724
0.317262
0.317288
0.317318
0.317352
0.317331
0.31728
0.317228
0.317183
0.317149
0.317128
0.317116
0.317109
0.317107
0.317106
0.317106
0.317106
0.317106
0.317105
0.317105
0.317105
0.317106
0.317106
0.317105
0.317105
0.317105
0.317106
0.317109
0.317116
0.317128
0.31715
0.317184
0.317229
0.317283
0.317333
0.317338
0.317269
0.317194
0.317134
0.317091
0.317065
0.317051
0.317044
0.317041
0.31704
0.31704
0.317041
0.317041
0.317041
0.317041
0.317041
0.317041
0.317041
0.31704
0.31704
0.31704
0.317041
0.317043
0.317051
0.317065
0.317092
0.317135
0.317198
0.317273
0.317343
0.201777
0.20178
0.201778
0.201774
0.201769
0.201764
0.201761
0.201761
0.201762
0.201763
0.20176
0.201753
0.201747
0.201748
0.201751
0.201752
0.201751
0.201751
0.201754
0.201759
0.201763
0.201765
0.201766
0.201767
0.20177
0.201775
0.20178
0.201785
0.20179
0.201786
0.316178
0.316181
0.316177
0.316174
0.316177
0.316185
0.316193
0.316201
0.316207
0.316207
0.3162
0.316192
0.316189
0.316192
0.316196
0.316196
0.316195
0.316196
0.316197
0.316198
0.316196
0.316194
0.31619
0.316186
0.316182
0.316178
0.316176
0.316176
0.316178
0.316175
0.32052
0.32054
0.320554
0.320564
0.320575
0.320587
0.320597
0.320605
0.320611
0.320612
0.32061
0.320607
0.320607
0.320609
0.320611
0.320611
0.320611
0.320611
0.320611
0.320608
0.320605
0.320601
0.320597
0.32059
0.320583
0.320572
0.32056
0.320547
0.32053
0.320512
0.319608
0.319651
0.319687
0.319711
0.31973
0.319744
0.319755
0.319763
0.319769
0.319773
0.319775
0.319776
0.319777
0.31978
0.319781
0.319782
0.319781
0.31978
0.319778
0.319775
0.319771
0.319767
0.319762
0.319755
0.319744
0.319729
0.319709
0.319683
0.319644
0.319601
0.318854
0.31892
0.318979
0.319017
0.319043
0.319059
0.31907
0.319079
0.319086
0.319092
0.319097
0.319101
0.319104
0.319107
0.319108
0.319108
0.319107
0.319105
0.319101
0.319098
0.319094
0.31909
0.319084
0.319076
0.319063
0.319044
0.319017
0.318977
0.318916
0.318849
0.318456
0.31854
0.318621
0.318674
0.318706
0.318725
0.318737
0.318746
0.318753
0.318761
0.318767
0.318773
0.318777
0.31878
0.318781
0.31878
0.318778
0.318775
0.318771
0.318768
0.318764
0.31876
0.318753
0.318743
0.318729
0.318707
0.318674
0.318619
0.318536
0.31845
0.318212
0.318311
0.318411
0.318477
0.318516
0.318538
0.31855
0.318559
0.318566
0.318573
0.31858
0.318586
0.318591
0.318593
0.318594
0.318593
0.318591
0.318588
0.318584
0.318581
0.318577
0.318571
0.318564
0.318554
0.318539
0.318515
0.318474
0.318406
0.318304
0.318206
0.318034
0.318141
0.318257
0.318336
0.318381
0.318406
0.31842
0.318428
0.318435
0.318441
0.318447
0.318453
0.318457
0.318459
0.31846
0.318459
0.318457
0.318454
0.318451
0.318447
0.318443
0.318438
0.318431
0.31842
0.318405
0.318378
0.318331
0.318251
0.318135
0.318028
0.317882
0.317995
0.318122
0.318211
0.318263
0.318291
0.318306
0.318314
0.31832
0.318325
0.31833
0.318335
0.318338
0.31834
0.318341
0.318341
0.318339
0.318336
0.318333
0.31833
0.318326
0.318321
0.318315
0.318305
0.318289
0.318259
0.318206
0.318117
0.317991
0.317878
0.317742
0.317856
0.31799
0.318086
0.318143
0.318174
0.31819
0.318198
0.318204
0.318208
0.318212
0.318216
0.318218
0.318219
0.31822
0.31822
0.318219
0.318217
0.318214
0.318211
0.318208
0.318204
0.318198
0.318189
0.318172
0.31814
0.318082
0.317987
0.317854
0.317739
0.317607
0.31772
0.317857
0.317957
0.318017
0.318049
0.318066
0.318075
0.31808
0.318083
0.318086
0.318089
0.31809
0.318091
0.318092
0.318092
0.318092
0.31809
0.318088
0.318086
0.318083
0.31808
0.318074
0.318065
0.318047
0.318013
0.317953
0.317854
0.317719
0.317605
0.317478
0.317586
0.317722
0.317823
0.317883
0.317916
0.317933
0.317942
0.317947
0.31795
0.317953
0.317954
0.317956
0.317956
0.317957
0.317958
0.317958
0.317957
0.317955
0.317953
0.31795
0.317947
0.317942
0.317932
0.317914
0.317881
0.31782
0.31772
0.317584
0.317476
0.317354
0.317455
0.317587
0.317685
0.317745
0.317778
0.317795
0.317804
0.317809
0.317812
0.317814
0.317815
0.317816
0.317817
0.317818
0.317819
0.317819
0.317818
0.317817
0.317814
0.317812
0.317808
0.317803
0.317794
0.317777
0.317744
0.317684
0.317585
0.317453
0.317351
0.317236
0.317327
0.317452
0.317547
0.317605
0.317637
0.317654
0.317663
0.317667
0.31767
0.317671
0.317672
0.317674
0.317675
0.317676
0.317676
0.317676
0.317675
0.317674
0.317672
0.317669
0.317666
0.317661
0.317653
0.317637
0.317606
0.317547
0.317451
0.317326
0.317232
0.317123
0.317204
0.31732
0.31741
0.317466
0.317497
0.317513
0.317521
0.317525
0.317527
0.317528
0.317529
0.31753
0.317531
0.317532
0.317532
0.317532
0.317531
0.31753
0.317528
0.317525
0.317523
0.317519
0.317511
0.317497
0.317467
0.317411
0.31732
0.317203
0.317119
0.317016
0.317087
0.317193
0.317277
0.317329
0.317358
0.317373
0.31738
0.317383
0.317384
0.317385
0.317386
0.317387
0.317388
0.317389
0.317389
0.317389
0.317388
0.317387
0.317385
0.317383
0.317381
0.317378
0.317371
0.317358
0.317329
0.317277
0.317193
0.317086
0.317013
0.316917
0.316976
0.317072
0.317147
0.317195
0.317222
0.317235
0.317241
0.317244
0.317245
0.317245
0.317246
0.317247
0.317247
0.317248
0.317248
0.317248
0.317247
0.317247
0.317246
0.317244
0.317243
0.31724
0.317234
0.317222
0.317196
0.317148
0.317071
0.316976
0.316914
0.316826
0.316873
0.316956
0.317024
0.317067
0.317091
0.317102
0.317107
0.317109
0.317109
0.317109
0.31711
0.31711
0.317111
0.317111
0.317112
0.317112
0.317111
0.317111
0.31711
0.317109
0.317108
0.317106
0.317101
0.31709
0.317066
0.317023
0.316955
0.316872
0.316822
0.316743
0.316778
0.316848
0.316907
0.316944
0.316965
0.316974
0.316978
0.316979
0.316979
0.316979
0.316979
0.316979
0.31698
0.316981
0.316981
0.316981
0.31698
0.31698
0.31698
0.31698
0.316979
0.316977
0.316973
0.316964
0.316943
0.316905
0.316846
0.316776
0.316739
0.316668
0.31669
0.316748
0.316797