/*--------------------------------*- C++ -*----------------------------------*\
| =========                 |                                                 |
| \\      /  F ield         | OpenFOAM: The Open Source CFD Toolbox           |
|  \\    /   O peration     | Version:  2506                                  |
|   \\  /    A nd           | Website:  www.openfoam.com                      |
|    \\/     M anipulation  |                                                 |
\*---------------------------------------------------------------------------*/
FoamFile
{
    version     2.0;
    format      ascii;
    arch        "LSB;label=32;scalar=64";
    class       volScalarField;
    location    "20";
    object      nut;
}
// * * * * * * * * * * * * * * * * * * * * * * * * * * * * * * * * * * * * * //

dimensions      [0 2 -1 0 0 0 0];

internalField   nonuniform List<scalar> 
144676
(
0.0589905
0.0589893
0.0589897
0.0589901
0.0589909
0.0589915
0.0589916
0.0589908
0.05899
0.0589896
0.0589897
0.05899
0.0589903
0.0589904
0.0589901
0.0589899
0.05899
0.0589907
0.0589915
0.0589916
0.0589915
0.0589913
0.058991
0.0589905
0.0589899
0.0589897
0.0589898
0.0589903
0.0589909
0.0589908
0.195966
0.195969
0.195969
0.195969
0.195969
0.195969
0.195969
0.195969
0.195969
0.195968
0.195968
0.195967
0.195967
0.195968
0.195968
0.195969
0.195969
0.195969
0.19597
0.19597
0.195969
0.195969
0.195969
0.195969
0.195968
0.195968
0.195969
0.195969
0.195969
0.195966
0.323289
0.323292
0.323293
0.323293
0.323294
0.323294
0.323295
0.323295
0.323294
0.323294
0.323293
0.323293
0.323292
0.323293
0.323293
0.323293
0.323293
0.323294
0.323294
0.323294
0.323294
0.323293
0.323293
0.323293
0.323292
0.323292
0.323292
0.323291
0.323291
0.323288
0.450283
0.450287
0.450289
0.45029
0.450292
0.450293
0.450294
0.450294
0.450293
0.450293
0.450293
0.450292
0.450292
0.450293
0.450292
0.450292
0.450293
0.450293
0.450293
0.450292
0.450292
0.450292
0.450292
0.450291
0.450291
0.45029
0.450289
0.450288
0.450286
0.450282
0.577109
0.577115
0.577119
0.577122
0.577124
0.577126
0.577127
0.577127
0.577127
0.577127
0.577127
0.577127
0.577127
0.577128
0.577128
0.577127
0.577127
0.577127
0.577127
0.577127
0.577127
0.577127
0.577127
0.577126
0.577125
0.577123
0.577121
0.577119
0.577115
0.577109
0.703901
0.703909
0.703916
0.703921
0.703924
0.703926
0.703927
0.703927
0.703928
0.703928
0.703929
0.703929
0.70393
0.70393
0.70393
0.70393
0.70393
0.70393
0.703929
0.703929
0.703929
0.703929
0.703929
0.703928
0.703926
0.703924
0.70392
0.703916
0.703909
0.703901
0.830682
0.830692
0.830702
0.83071
0.830715
0.830717
0.830718
0.830718
0.830719
0.83072
0.83072
0.830721
0.830722
0.830722
0.830722
0.830722
0.830722
0.830721
0.830721
0.830721
0.830721
0.830721
0.83072
0.830719
0.830717
0.830713
0.830708
0.830702
0.830692
0.830681
0.957454
0.957466
0.957479
0.95749
0.957496
0.957499
0.9575
0.957501
0.957502
0.957503
0.957503
0.957504
0.957504
0.957505
0.957504
0.957504
0.957504
0.957504
0.957504
0.957504
0.957504
0.957504
0.957502
0.957501
0.957498
0.957494
0.957487
0.957477
0.957464
0.957452
1.08421
1.08423
1.08424
1.08426
1.08427
1.08427
1.08427
1.08427
1.08427
1.08427
1.08427
1.08428
1.08428
1.08428
1.08428
1.08428
1.08427
1.08427
1.08427
1.08427
1.08427
1.08427
1.08427
1.08427
1.08427
1.08426
1.08425
1.08424
1.08423
1.08421
1.21096
1.21097
1.21099
1.21101
1.21102
1.21102
1.21103
1.21103
1.21103
1.21103
1.21103
1.21103
1.21103
1.21103
1.21103
1.21103
1.21103
1.21103
1.21103
1.21103
1.21103
1.21103
1.21103
1.21103
1.21102
1.21102
1.21101
1.21099
1.21097
1.21096
1.33769
1.3377
1.33772
1.33774
1.33775
1.33775
1.33776
1.33776
1.33776
1.33776
1.33776
1.33776
1.33776
1.33776
1.33776
1.33776
1.33776
1.33776
1.33776
1.33776
1.33776
1.33776
1.33776
1.33776
1.33775
1.33775
1.33773
1.33772
1.3377
1.33768
1.46439
1.4644
1.46442
1.46444
1.46445
1.46446
1.46446
1.46446
1.46446
1.46446
1.46446
1.46446
1.46446
1.46446
1.46446
1.46446
1.46446
1.46446
1.46446
1.46446
1.46446
1.46446
1.46446
1.46446
1.46446
1.46445
1.46444
1.46442
1.4644
1.46439
1.59107
1.59107
1.59109
1.59111
1.59112
1.59112
1.59113
1.59113
1.59113
1.59113
1.59113
1.59113
1.59113
1.59113
1.59113
1.59113
1.59113
1.59113
1.59113
1.59113
1.59113
1.59113
1.59113
1.59113
1.59112
1.59112
1.5911
1.59109
1.59107
1.59106
1.71771
1.7177
1.71772
1.71773
1.71774
1.71775
1.71776
1.71776
1.71776
1.71776
1.71776
1.71776
1.71776
1.71776
1.71776
1.71776
1.71776
1.71776
1.71776
1.71776
1.71776
1.71776
1.71776
1.71776
1.71775
1.71775
1.71773
1.71772
1.7177
1.7177
1.84431
1.84429
1.8443
1.84432
1.84433
1.84433
1.84434
1.84434
1.84434
1.84434
1.84434
1.84434
1.84434
1.84434
1.84434
1.84434
1.84434
1.84434
1.84434
1.84434
1.84434
1.84434
1.84434
1.84434
1.84433
1.84433
1.84432
1.8443
1.84429
1.8443
1.97087
1.97084
1.97084
1.97085
1.97086
1.97086
1.97087
1.97087
1.97087
1.97087
1.97087
1.97087
1.97087
1.97087
1.97087
1.97087
1.97087
1.97087
1.97087
1.97087
1.97087
1.97087
1.97087
1.97086
1.97086
1.97086
1.97085
1.97084
1.97083
1.97086
2.09738
2.09733
2.09732
2.09732
2.09733
2.09733
2.09733
2.09733
2.09733
2.09733
2.09733
2.09733
2.09733
2.09733
2.09733
2.09733
2.09733
2.09733
2.09733
2.09733
2.09733
2.09733
2.09733
2.09733
2.09733
2.09733
2.09732
2.09732
2.09733
2.09737
2.22384
2.22376
2.22374
2.22373
2.22373
2.22374
2.22374
2.22374
2.22374
2.22374
2.22373
2.22373
2.22373
2.22373
2.22373
2.22374
2.22374
2.22374
2.22374
2.22374
2.22374
2.22374
2.22374
2.22374
2.22373
2.22373
2.22373
2.22374
2.22376
2.22383
2.35024
2.35013
2.35009
2.35007
2.35007
2.35007
2.35007
2.35007
2.35007
2.35007
2.35006
2.35006
2.35006
2.35006
2.35006
2.35006
2.35006
2.35006
2.35006
2.35006
2.35006
2.35007
2.35007
2.35007
2.35007
2.35007
2.35007
2.35009
2.35013
2.35022
2.47658
2.47643
2.47637
2.47634
2.47633
2.47632
2.47632
2.47632
2.47632
2.47632
2.47632
2.47632
2.47632
2.47632
2.47632
2.47632
2.47632
2.47632
2.47632
2.47632
2.47632
2.47632
2.47632
2.47632
2.47632
2.47633
2.47634
2.47637
2.47643
2.47655
2.60284
2.60266
2.60257
2.60253
2.60251
2.6025
2.60249
2.60249
2.60249
2.60249
2.60249
2.60249
2.60249
2.60249
2.60249
2.60249
2.60249
2.60249
2.60249
2.60249
2.60249
2.60249
2.60249
2.60249
2.60249
2.6025
2.60253
2.60257
2.60265
2.60281
2.72903
2.72881
2.72869
2.72863
2.7286
2.72858
2.72857
2.72857
2.72857
2.72857
2.72857
2.72857
2.72857
2.72857
2.72857
2.72857
2.72857
2.72857
2.72857
2.72857
2.72857
2.72857
2.72857
2.72857
2.72858
2.7286
2.72863
2.72869
2.7288
2.729
2.85514
2.85487
2.85472
2.85464
2.85459
2.85457
2.85456
2.85456
2.85456
2.85456
2.85456
2.85456
2.85456
2.85456
2.85456
2.85456
2.85456
2.85456
2.85456
2.85456
2.85456
2.85456
2.85456
2.85456
2.85457
2.8546
2.85464
2.85472
2.85486
2.85511
2.98117
2.98084
2.98065
2.98055
2.98049
2.98047
2.98045
2.98045
2.98044
2.98044
2.98044
2.98044
2.98044
2.98044
2.98044
2.98044
2.98044
2.98044
2.98044
2.98044
2.98044
2.98044
2.98045
2.98045
2.98047
2.98049
2.98055
2.98065
2.98083
2.98113
3.10708
3.1067
3.10647
3.10634
3.10627
3.10624
3.10622
3.10621
3.10621
3.10621
3.10621
3.10621
3.10621
3.10621
3.10621
3.10621
3.10621
3.10621
3.10621
3.10621
3.10621
3.10621
3.10621
3.10622
3.10624
3.10627
3.10634
3.10647
3.10669
3.10703
3.23282
3.23238
3.23211
3.23195
3.23187
3.23182
3.2318
3.23179
3.23179
3.23179
3.23179
3.23179
3.23179
3.23179
3.23179
3.23178
3.23178
3.23179
3.23179
3.23179
3.23179
3.23179
3.23179
3.2318
3.23182
3.23187
3.23195
3.23211
3.23237
3.23277
3.35815
3.35765
3.35734
3.35715
3.35705
3.357
3.35697
3.35696
3.35695
3.35695
3.35695
3.35695
3.35695
3.35695
3.35695
3.35695
3.35695
3.35695
3.35695
3.35695
3.35695
3.35695
3.35696
3.35697
3.357
3.35705
3.35716
3.35734
3.35764
3.3581
3.48222
3.48167
3.48132
3.48111
3.48099
3.48092
3.48089
3.48088
3.48087
3.48087
3.48087
3.48087
3.48087
3.48087
3.48087
3.48087
3.48087
3.48087
3.48087
3.48087
3.48087
3.48087
3.48088
3.48089
3.48093
3.48099
3.48112
3.48133
3.48167
3.48217
3.60165
3.60107
3.60069
3.60046
3.60032
3.60025
3.60022
3.6002
3.6002
3.60019
3.60019
3.60019
3.60019
3.60019
3.60019
3.60019
3.60019
3.60019
3.60019
3.60019
3.60019
3.6002
3.6002
3.60022
3.60026
3.60033
3.60047
3.60071
3.60108
3.60162
3.70119
3.70061
3.70023
3.69998
3.69984
3.69977
3.69973
3.69971
3.6997
3.6997
3.6997
3.6997
3.6997
3.6997
3.6997
3.6997
3.6997
3.6997
3.6997
3.6997
3.6997
3.6997
3.69971
3.69973
3.69977
3.69985
3.7
3.70025
3.70063
3.70117
0.055429
0.05543
0.0554312
0.0554322
0.0554331
0.0554332
0.0554321
0.0554305
0.0554294
0.0554292
0.0554297
0.05543
0.05543
0.0554297
0.0554294
0.0554293
0.0554304
0.0554318
0.0554327
0.0554329
0.0554328
0.0554327
0.055432
0.055431
0.0554303
0.0554302
0.0554311
0.0554324
0.055433
0.0554308
0.196709
0.196716
0.196716
0.196715
0.196715
0.196715
0.196715
0.196716
0.196715
0.196715
0.196713
0.196712
0.196711
0.196713
0.196714
0.196714
0.196714
0.196715
0.196715
0.196716
0.196715
0.196715
0.196715
0.196714
0.196714
0.196714
0.196715
0.196716
0.196717
0.196709
0.323769
0.323777
0.323779
0.323779
0.32378
0.323781
0.323782
0.323782
0.323782
0.323781
0.323779
0.323778
0.323778
0.323778
0.323779
0.323779
0.323779
0.323779
0.32378
0.32378
0.32378
0.323779
0.323779
0.323778
0.323778
0.323777
0.323777
0.323776
0.323775
0.323767
0.450806
0.450818
0.450823
0.450827
0.45083
0.450832
0.450833
0.450833
0.450833
0.450832
0.450832
0.450831
0.450831
0.450832
0.450832
0.450832
0.450832
0.450832
0.450832
0.450831
0.450831
0.450831
0.450831
0.45083
0.450829
0.450827
0.450824
0.450821
0.450815
0.450803
0.577594
0.577611
0.577622
0.577631
0.577637
0.57764
0.577642
0.577642
0.577643
0.577643
0.577644
0.577645
0.577645
0.577646
0.577646
0.577646
0.577646
0.577646
0.577645
0.577644
0.577644
0.577644
0.577644
0.577643
0.57764
0.577636
0.57763
0.577622
0.57761
0.577593
0.704304
0.704325
0.704345
0.70436
0.704369
0.704374
0.704376
0.704378
0.704379
0.704381
0.704382
0.704384
0.704386
0.704387
0.704387
0.704387
0.704386
0.704385
0.704384
0.704383
0.704383
0.704383
0.704382
0.70438
0.704376
0.704369
0.704359
0.704345
0.704325
0.704303
0.830978
0.831002
0.831031
0.831054
0.831067
0.831074
0.831078
0.83108
0.831082
0.831084
0.831086
0.831088
0.83109
0.831091
0.831092
0.831091
0.83109
0.831089
0.831088
0.831087
0.831087
0.831087
0.831084
0.831081
0.831075
0.831066
0.831051
0.831029
0.831
0.830974
0.95762
0.957646
0.957684
0.957714
0.957733
0.957743
0.957748
0.957751
0.957753
0.957755
0.957757
0.95776
0.957762
0.957763
0.957763
0.957762
0.957761
0.95776
0.957759
0.957759
0.957758
0.957756
0.957753
0.957749
0.957741
0.95773
0.95771
0.957679
0.957642
0.957614
1.08422
1.08425
1.08429
1.08433
1.08435
1.08437
1.08437
1.08438
1.08438
1.08438
1.08438
1.08439
1.08439
1.08439
1.08439
1.08439
1.08439
1.08439
1.08438
1.08438
1.08438
1.08438
1.08438
1.08437
1.08436
1.08435
1.08432
1.08429
1.08424
1.08422
1.21077
1.21079
1.21084
1.21088
1.21091
1.21093
1.21094
1.21094
1.21094
1.21095
1.21095
1.21095
1.21095
1.21095
1.21095
1.21095
1.21095
1.21095
1.21095
1.21095
1.21095
1.21094
1.21094
1.21094
1.21093
1.21091
1.21088
1.21083
1.21079
1.21076
1.33725
1.33726
1.3373
1.33735
1.33738
1.3374
1.33741
1.33742
1.33742
1.33742
1.33743
1.33743
1.33743
1.33743
1.33743
1.33743
1.33743
1.33743
1.33742
1.33742
1.33742
1.33742
1.33742
1.33741
1.3374
1.33738
1.33735
1.3373
1.33725
1.33724
1.46365
1.46363
1.46367
1.46372
1.46375
1.46377
1.46378
1.46379
1.46379
1.46379
1.46379
1.4638
1.4638
1.4638
1.4638
1.4638
1.4638
1.4638
1.46379
1.46379
1.46379
1.46379
1.46379
1.46378
1.46377
1.46375
1.46371
1.46367
1.46363
1.46364
1.58995
1.58989
1.58992
1.58996
1.58999
1.59001
1.59002
1.59003
1.59003
1.59003
1.59003
1.59004
1.59004
1.59004
1.59004
1.59004
1.59004
1.59004
1.59004
1.59004
1.59003
1.59003
1.59003
1.59002
1.59001
1.58999
1.58996
1.58992
1.58989
1.58993
1.71612
1.71602
1.71602
1.71605
1.71608
1.7161
1.71611
1.71612
1.71612
1.71612
1.71612
1.71613
1.71613
1.71613
1.71613
1.71613
1.71613
1.71613
1.71613
1.71613
1.71612
1.71612
1.71612
1.71611
1.7161
1.71608
1.71606
1.71603
1.71602
1.7161
1.84215
1.842
1.84197
1.84198
1.842
1.84202
1.84203
1.84203
1.84204
1.84204
1.84204
1.84204
1.84204
1.84204
1.84204
1.84204
1.84204
1.84204
1.84204
1.84204
1.84204
1.84203
1.84203
1.84203
1.84202
1.842
1.84199
1.84197
1.842
1.84213
1.96803
1.96781
1.96774
1.96772
1.96773
1.96774
1.96775
1.96775
1.96775
1.96775
1.96775
1.96775
1.96776
1.96776
1.96776
1.96776
1.96776
1.96776
1.96776
1.96775
1.96775
1.96775
1.96775
1.96774
1.96774
1.96773
1.96773
1.96774
1.9678
1.968
2.09373
2.09342
2.0933
2.09326
2.09325
2.09325
2.09325
2.09325
2.09325
2.09325
2.09325
2.09325
2.09325
2.09326
2.09326
2.09326
2.09326
2.09326
2.09326
2.09325
2.09325
2.09325
2.09325
2.09325
2.09325
2.09325
2.09326
2.0933
2.09342
2.09369
2.21923
2.21883
2.21864
2.21856
2.21853
2.21852
2.21852
2.21852
2.21852
2.21852
2.21852
2.21852
2.21852
2.21852
2.21852
2.21852
2.21852
2.21852
2.21852
2.21852
2.21852
2.21852
2.21851
2.21851
2.21852
2.21853
2.21856
2.21864
2.21882
2.21919
2.34451
2.344
2.34373
2.34361
2.34355
2.34353
2.34352
2.34352
2.34352
2.34352
2.34352
2.34352
2.34352
2.34352
2.34352
2.34352
2.34352
2.34352
2.34352
2.34352
2.34352
2.34352
2.34352
2.34352
2.34353
2.34356
2.34361
2.34374
2.34399
2.34446
2.46957
2.46892
2.46857
2.46839
2.46831
2.46827
2.46826
2.46825
2.46825
2.46825
2.46825
2.46825
2.46825
2.46825
2.46825
2.46825
2.46825
2.46825
2.46825
2.46825
2.46825
2.46825
2.46825
2.46826
2.46827
2.46831
2.4684
2.46857
2.46891
2.4695
2.59437
2.59358
2.59313
2.5929
2.59278
2.59273
2.5927
2.59269
2.59269
2.59269
2.59269
2.59269
2.59269
2.59269
2.59269
2.59269
2.59269
2.59269
2.59269
2.59269
2.59269
2.59269
2.59269
2.5927
2.59273
2.59278
2.5929
2.59314
2.59357
2.59429
2.71891
2.71795
2.7174
2.7171
2.71694
2.71687
2.71684
2.71682
2.71682
2.71682
2.71682
2.71682
2.71682
2.71682
2.71682
2.71682
2.71682
2.71682
2.71682
2.71682
2.71682
2.71682
2.71683
2.71684
2.71688
2.71695
2.71711
2.71741
2.71794
2.71882
2.84316
2.84203
2.84136
2.84098
2.84079
2.84069
2.84065
2.84063
2.84062
2.84062
2.84062
2.84062
2.84062
2.84062
2.84062
2.84062
2.84062
2.84062
2.84062
2.84062
2.84062
2.84062
2.84063
2.84065
2.8407
2.8408
2.841
2.84137
2.84202
2.84306
2.96711
2.96579
2.96499
2.96453
2.96428
2.96416
2.96411
2.96408
2.96407
2.96407
2.96407
2.96407
2.96407
2.96407
2.96407
2.96407
2.96407
2.96407
2.96407
2.96407
2.96407
2.96407
2.96409
2.96411
2.96417
2.9643
2.96454
2.965
2.96578
2.967
3.09068
3.08915
3.08821
3.08766
3.08737
3.08722
3.08715
3.08712
3.08711
3.0871
3.0871
3.0871
3.0871
3.0871
3.0871
3.0871
3.0871
3.0871
3.0871
3.0871
3.0871
3.08711
3.08712
3.08715
3.08723
3.08738
3.08768
3.08823
3.08914
3.09055
3.21364
3.21191
3.21083
3.21018
3.20983
3.20965
3.20957
3.20953
3.20951
3.20951
3.20951
3.20951
3.20951
3.20951
3.20951
3.20951
3.20951
3.20951
3.20951
3.20951
3.20951
3.20951
3.20953
3.20957
3.20966
3.20985
3.21021
3.21085
3.21191
3.21352
3.3353
3.33337
3.33214
3.33141
3.331
3.33078
3.33068
3.33063
3.33061
3.33061
3.33061
3.33061
3.33061
3.33061
3.33061
3.33061
3.33061
3.33061
3.33061
3.33061
3.33061
3.33061
3.33064
3.33069
3.33079
3.33102
3.33144
3.33218
3.33339
3.33518
3.45342
3.45133
3.44998
3.44915
3.44868
3.44844
3.44832
3.44827
3.44824
3.44824
3.44823
3.44823
3.44823
3.44823
3.44823
3.44823
3.44823
3.44823
3.44823
3.44823
3.44823
3.44824
3.44827
3.44833
3.44845
3.44871
3.4492
3.45004
3.45137
3.45332
3.56122
3.55904
3.55761
3.55671
3.5562
3.55593
3.5558
3.55574
3.55571
3.5557
3.5557
3.5557
3.5557
3.5557
3.5557
3.5557
3.5557
3.5557
3.5557
3.5557
3.5557
3.55571
3.55574
3.5558
3.55595
3.55624
3.55677
3.55768
3.55912
3.56116
3.63912
3.63699
3.63555
3.63465
3.63412
3.63384
3.6337
3.63363
3.63361
3.6336
3.63359
3.6336
3.6336
3.6336
3.6336
3.6336
3.6336
3.6336
3.63359
3.63359
3.63359
3.6336
3.63363
3.6337
3.63386
3.63416
3.63471
3.63565
3.63709
3.63912
0.0526495
0.0526541
0.0526552
0.0526556
0.0526557
0.0526553
0.0526541
0.0526528
0.0526524
0.0526525
0.0526527
0.0526524
0.0526522
0.0526517
0.0526514
0.0526518
0.0526526
0.052654
0.0526551
0.052656
0.0526567
0.0526567
0.0526557
0.0526543
0.0526532
0.0526534
0.0526546
0.0526556
0.0526554
0.0526499
0.198139
0.198147
0.198146
0.198144
0.198143
0.198143
0.198144
0.198145
0.198145
0.198144
0.198142
0.19814
0.198139
0.19814
0.198141
0.198141
0.198141
0.198142
0.198143
0.198144
0.198144
0.198144
0.198143
0.198142
0.198143
0.198143
0.198145
0.198147
0.198148
0.198139
0.324603
0.324611
0.324612
0.324613
0.324614
0.324615
0.324617
0.324617
0.324617
0.324616
0.324614
0.324612
0.324611
0.324611
0.324612
0.324612
0.324612
0.324613
0.324613
0.324614
0.324614
0.324613
0.324613
0.324613
0.324612
0.324612
0.324611
0.32461
0.324607
0.3246
0.451471
0.451484
0.451492
0.451499
0.451504
0.451507
0.451509
0.45151
0.45151
0.45151
0.451509
0.451508
0.451508
0.451508
0.451508
0.451509
0.451509
0.451509
0.451509
0.451509
0.451508
0.451508
0.451508
0.451507
0.451505
0.451502
0.451497
0.451489
0.45148
0.451467
0.578138
0.578154
0.578175
0.578191
0.578202
0.578208
0.578211
0.578213
0.578214
0.578215
0.578216
0.578217
0.578218
0.578219
0.57822
0.57822
0.57822
0.578219
0.578218
0.578217
0.578217
0.578216
0.578216
0.578214
0.57821
0.578202
0.578191
0.578174
0.578153
0.578134
0.704674
0.704693
0.704728
0.704756
0.704774
0.704784
0.704789
0.704792
0.704794
0.704797
0.7048
0.704803
0.704805
0.704807
0.704807
0.704807
0.704805
0.704804
0.704802
0.704801
0.704801
0.7048
0.704798
0.704794
0.704787
0.704776
0.704756
0.704727
0.704692
0.704669
0.831121
0.83114
0.831187
0.83123
0.831256
0.831271
0.831278
0.831282
0.831285
0.831288
0.831292
0.831296
0.831299
0.831301
0.831301
0.831301
0.831299
0.831297
0.831295
0.831294
0.831293
0.831291
0.831288
0.831282
0.831272
0.831255
0.831227
0.831184
0.831135
0.831113
0.957487
0.957499
0.957557
0.957612
0.957648
0.957668
0.957678
0.957683
0.957687
0.95769
0.957694
0.957699
0.957702
0.957704
0.957704
0.957703
0.957701
0.957699
0.957697
0.957695
0.957694
0.957691
0.957687
0.957679
0.957667
0.957645
0.957607
0.957551
0.957492
0.957478
1.08376
1.08375
1.08381
1.08388
1.08392
1.08395
1.08396
1.08397
1.08397
1.08397
1.08398
1.08398
1.08399
1.08399
1.08399
1.08399
1.08398
1.08398
1.08398
1.08398
1.08398
1.08397
1.08397
1.08396
1.08395
1.08392
1.08387
1.08381
1.08375
1.08375
1.2099
1.20986
1.20992
1.20999
1.21004
1.21007
1.21009
1.2101
1.2101
1.2101
1.21011
1.21011
1.21011
1.21011
1.21011
1.21011
1.21011
1.21011
1.21011
1.2101
1.2101
1.2101
1.2101
1.21009
1.21007
1.21004
1.20998
1.20991
1.20986
1.20989
1.33588
1.3358
1.33584
1.33591
1.33596
1.33599
1.33601
1.33602
1.33602
1.33603
1.33603
1.33603
1.33603
1.33603
1.33603
1.33603
1.33603
1.33603
1.33603
1.33603
1.33603
1.33602
1.33602
1.33601
1.33599
1.33595
1.3359
1.33583
1.3358
1.33587
1.46167
1.46152
1.46152
1.46158
1.46163
1.46166
1.46168
1.46169
1.46169
1.4617
1.4617
1.4617
1.4617
1.4617
1.4617
1.4617
1.4617
1.4617
1.4617
1.4617
1.4617
1.46169
1.46169
1.46168
1.46166
1.46162
1.46158
1.46152
1.46152
1.46166
1.58723
1.58698
1.58693
1.58696
1.587
1.58703
1.58704
1.58705
1.58706
1.58706
1.58706
1.58706
1.58706
1.58706
1.58707
1.58707
1.58707
1.58707
1.58707
1.58706
1.58706
1.58706
1.58705
1.58704
1.58703
1.587
1.58697
1.58694
1.58698
1.5872
1.7125
1.71214
1.71203
1.71201
1.71203
1.71205
1.71206
1.71207
1.71207
1.71208
1.71208
1.71208
1.71208
1.71208
1.71208
1.71208
1.71208
1.71208
1.71208
1.71208
1.71208
1.71207
1.71207
1.71206
1.71205
1.71203
1.71202
1.71203
1.71214
1.71248
1.83746
1.83696
1.83675
1.83668
1.83667
1.83668
1.83669
1.83669
1.8367
1.8367
1.8367
1.8367
1.8367
1.8367
1.83671
1.83671
1.83671
1.83671
1.8367
1.8367
1.8367
1.83669
1.83669
1.83669
1.83668
1.83668
1.83669
1.83676
1.83696
1.83743
1.96206
1.96138
1.96106
1.96093
1.96089
1.96088
1.96088
1.96088
1.96089
1.96089
1.96089
1.96089
1.96089
1.96089
1.96089
1.96089
1.96089
1.96089
1.96089
1.96089
1.96088
1.96088
1.96088
1.96088
1.96088
1.96089
1.96094
1.96108
1.96139
1.96202
2.08625
2.08538
2.08493
2.08472
2.08463
2.0846
2.08459
2.08459
2.08459
2.08459
2.08459
2.0846
2.0846
2.0846
2.0846
2.0846
2.0846
2.0846
2.0846
2.08459
2.08459
2.08459
2.08459
2.08459
2.08461
2.08464
2.08473
2.08495
2.08539
2.08621
2.21
2.20891
2.20831
2.208
2.20787
2.20781
2.20779
2.20779
2.20778
2.20778
2.20778
2.20778
2.20778
2.20779
2.20779
2.20779
2.20779
2.20779
2.20778
2.20778
2.20778
2.20778
2.20778
2.20779
2.20782
2.20788
2.20802
2.20833
2.20892
2.20995
2.33328
2.33193
2.33116
2.33075
2.33056
2.33047
2.33044
2.33042
2.33042
2.33042
2.33042
2.33042
2.33042
2.33042
2.33042
2.33042
2.33042
2.33042
2.33042
2.33042
2.33042
2.33042
2.33042
2.33044
2.33048
2.33057
2.33077
2.33118
2.33194
2.33322
2.45605
2.45441
2.45345
2.45293
2.45267
2.45255
2.45249
2.45247
2.45247
2.45246
2.45246
2.45246
2.45246
2.45247
2.45247
2.45247
2.45247
2.45247
2.45246
2.45246
2.45246
2.45247
2.45247
2.4525
2.45255
2.45268
2.45295
2.45348
2.45443
2.45598
2.57828
2.57632
2.57515
2.5745
2.57417
2.57401
2.57394
2.57391
2.5739
2.5739
2.5739
2.5739
2.5739
2.5739
2.5739
2.5739
2.5739
2.5739
2.5739
2.5739
2.5739
2.5739
2.57391
2.57394
2.57402
2.57419
2.57453
2.57519
2.57635
2.5782
2.69995
2.69765
2.69624
2.69545
2.69504
2.69484
2.69475
2.69471
2.6947
2.69469
2.69469
2.69469
2.69469
2.69469
2.69469
2.69469
2.69469
2.69469
2.69469
2.69469
2.69469
2.6947
2.69471
2.69475
2.69485
2.69506
2.69549
2.69629
2.69767
2.69985
2.82103
2.81835
2.81669
2.81574
2.81524
2.815
2.81488
2.81484
2.81482
2.81481
2.81481
2.81481
2.81481
2.81481
2.81481
2.81481
2.81481
2.81481
2.81481
2.81481
2.81481
2.81482
2.81484
2.81489
2.81501
2.81527
2.81579
2.81675
2.81838
2.82092
2.94147
2.93838
2.93646
2.93534
2.93474
2.93445
2.93431
2.93425
2.93422
2.93422
2.93422
2.93422
2.93422
2.93422
2.93422
2.93422
2.93422
2.93422
2.93421
2.93421
2.93422
2.93423
2.93425
2.93432
2.93447
2.93478
2.9354
2.93653
2.93843
2.94135
3.06115
3.05764
3.05543
3.05413
3.05343
3.05308
3.05291
3.05284
3.05281
3.0528
3.05279
3.05279
3.0528
3.0528
3.0528
3.05279
3.05279
3.05279
3.05279
3.05279
3.0528
3.05281
3.05284
3.05292
3.0531
3.05347
3.0542
3.05552
3.05771
3.06103
3.17968
3.17576
3.17325
3.17177
3.17095
3.17053
3.17033
3.17025
3.17021
3.1702
3.17019
3.17019
3.1702
3.1702
3.1702
3.1702
3.17019
3.17019
3.17019
3.17019
3.1702
3.17021
3.17025
3.17035
3.17056
3.171
3.17184
3.17336
3.17585
3.17957
3.29592
3.29161
3.28883
3.28715
3.28622
3.28574
3.28551
3.2854
3.28536
3.28534
3.28534
3.28534
3.28534
3.28534
3.28534
3.28534
3.28534
3.28534
3.28534
3.28534
3.28534
3.28536
3.28541
3.28552
3.28577
3.28628
3.28725
3.28897
3.29174
3.29585
3.40667
3.40205
3.39903
3.39719
3.39615
3.39561
3.39535
3.39523
3.39518
3.39516
3.39516
3.39516
3.39516
3.39516
3.39516
3.39516
3.39516
3.39516
3.39516
3.39516
3.39516
3.39518
3.39523
3.39536
3.39565
3.39622
3.39731
3.39921
3.40224
3.40666
3.50372
3.49895
3.4958
3.49385
3.49274
3.49215
3.49186
3.49173
3.49167
3.49165
3.49165
3.49165
3.49165
3.49165
3.49165
3.49165
3.49165
3.49165
3.49165
3.49165
3.49165
3.49167
3.49173
3.49188
3.49219
3.49282
3.494
3.49603
3.49922
3.50381
3.569
3.56437
3.56126
3.5593
3.55817
3.55756
3.55726
3.55712
3.55706
3.55704
3.55704
3.55704
3.55704
3.55704
3.55705
3.55705
3.55704
3.55704
3.55704
3.55704
3.55704
3.55706
3.55713
3.55728
3.55761
3.55827
3.55947
3.56153
3.56471
3.56923
0.0504582
0.0504657
0.0504659
0.0504654
0.0504649
0.0504646
0.0504642
0.0504637
0.0504638
0.0504638
0.0504637
0.0504632
0.0504624
0.0504619
0.0504616
0.0504616
0.0504624
0.0504638
0.0504655
0.0504671
0.050468
0.0504675
0.050466
0.0504644
0.0504638
0.0504645
0.0504654
0.0504658
0.050465
0.0504574
0.199901
0.199903
0.199899
0.199896
0.199894
0.199894
0.199895
0.199897
0.199897
0.199896
0.199894
0.199891
0.19989
0.199891
0.199891
0.199891
0.199892
0.199892
0.199893
0.199894
0.199894
0.199894
0.199894
0.199894
0.199894
0.199896
0.199898
0.199902
0.199905
0.199902
0.325713
0.325712
0.325712
0.325713
0.325715
0.325716
0.325718
0.325718
0.325718
0.325717
0.325714
0.325712
0.325711
0.325711
0.325711
0.325712
0.325712
0.325713
0.325713
0.325714
0.325714
0.325714
0.325714
0.325715
0.325715
0.325715
0.325713
0.325711
0.325711
0.325711
0.452229
0.45223
0.452241
0.452253
0.45226
0.452265
0.452268
0.452269
0.452269
0.452269
0.452268
0.452266
0.452266
0.452266
0.452267
0.452268
0.452268
0.452268
0.452268
0.452268
0.452268
0.452268
0.452268
0.452268
0.452266
0.452261
0.452252
0.45224
0.452228
0.452226
0.578676
0.578677
0.578705
0.578732
0.57875
0.578759
0.578764
0.578767
0.578769
0.578771
0.578772
0.578773
0.578774
0.578775
0.578776
0.578776
0.578775
0.578774
0.578773
0.578772
0.578772
0.578772
0.578771
0.578769
0.578764
0.578753
0.578734
0.578705
0.578676
0.578673
0.704932
0.704928
0.704972
0.705017
0.705047
0.705063
0.705071
0.705076
0.705079
0.705083
0.705086
0.70509
0.705092
0.705094
0.705095
0.705094
0.705093
0.70509
0.705088
0.705087
0.705086
0.705085
0.705083
0.705078
0.705068
0.70505
0.705019
0.704972
0.704926
0.704927
0.831009
0.830988
0.831044
0.831107
0.83115
0.831173
0.831184
0.83119
0.831195
0.831199
0.831205
0.831209
0.831213
0.831215
0.831216
0.831215
0.831212
0.83121
0.831207
0.831205
0.831204
0.831202
0.831197
0.83119
0.831176
0.831151
0.831106
0.831042
0.830984
0.831001
0.956916
0.956862
0.95692
0.956995
0.957049
0.95708
0.957095
0.957103
0.957108
0.957113
0.957118
0.957124
0.957128
0.95713
0.95713
0.957129
0.957127
0.957124
0.957121
0.957119
0.957116
0.957113
0.957108
0.957098
0.957081
0.957048
0.956992
0.956915
0.956857
0.956906
1.08262
1.08251
1.08256
1.08264
1.0827
1.08274
1.08275
1.08276
1.08277
1.08277
1.08278
1.08278
1.08279
1.08279
1.08279
1.08279
1.08278
1.08278
1.08278
1.08278
1.08277
1.08277
1.08277
1.08275
1.08273
1.08269
1.08263
1.08255
1.08251
1.08261
1.20807
1.20788
1.20789
1.20796
1.20802
1.20807
1.20809
1.2081
1.2081
1.20811
1.20811
1.20812
1.20812
1.20812
1.20812
1.20812
1.20812
1.20812
1.20811
1.20811
1.20811
1.20811
1.2081
1.20809
1.20806
1.20802
1.20796
1.20789
1.20789
1.20806
1.33321
1.33291
1.33285
1.3329
1.33295
1.33299
1.33302
1.33303
1.33304
1.33304
1.33304
1.33305
1.33305
1.33305
1.33305
1.33305
1.33305
1.33305
1.33305
1.33304
1.33304
1.33304
1.33303
1.33301
1.33299
1.33295
1.3329
1.33286
1.33291
1.3332
1.45796
1.45751
1.45737
1.45737
1.4574
1.45744
1.45746
1.45747
1.45748
1.45748
1.45748
1.45748
1.45748
1.45748
1.45749
1.45749
1.45749
1.45749
1.45748
1.45748
1.45748
1.45748
1.45747
1.45746
1.45744
1.4574
1.45737
1.45738
1.45752
1.45795
1.58226
1.58162
1.58135
1.58128
1.58128
1.5813
1.58132
1.58133
1.58133
1.58133
1.58133
1.58133
1.58133
1.58133
1.58134
1.58134
1.58134
1.58134
1.58134
1.58133
1.58133
1.58133
1.58132
1.58131
1.5813
1.58129
1.58129
1.58137
1.58163
1.58225
1.70603
1.70515
1.70473
1.70457
1.70452
1.70452
1.70452
1.70453
1.70453
1.70453
1.70453
1.70453
1.70453
1.70454
1.70454
1.70454
1.70454
1.70454
1.70454
1.70453
1.70453
1.70453
1.70452
1.70452
1.70452
1.70453
1.70458
1.70475
1.70517
1.70602
1.82919
1.82803
1.82742
1.82715
1.82704
1.82701
1.827
1.827
1.827
1.82701
1.82701
1.82701
1.82701
1.82701
1.82701
1.82701
1.82701
1.82701
1.82701
1.82701
1.827
1.827
1.827
1.827
1.82701
1.82706
1.82717
1.82746
1.82806
1.82918
1.95167
1.95019
1.94937
1.94896
1.94878
1.94871
1.94869
1.94868
1.94868
1.94868
1.94868
1.94869
1.94869
1.94869
1.94869
1.94869
1.94869
1.94869
1.94869
1.94868
1.94868
1.94868
1.94868
1.94869
1.94872
1.9488
1.94899
1.94941
1.95024
1.95166
2.07341
2.07156
2.07049
2.06993
2.06967
2.06956
2.06952
2.0695
2.0695
2.0695
2.0695
2.0695
2.0695
2.0695
2.0695
2.0695
2.0695
2.0695
2.0695
2.0695
2.0695
2.0695
2.0695
2.06952
2.06957
2.06969
2.06997
2.07055
2.07162
2.07341
2.19435
2.19208
2.19074
2.19001
2.18965
2.1895
2.18943
2.18941
2.1894
2.18939
2.18939
2.18939
2.1894
2.1894
2.1894
2.1894
2.1894
2.1894
2.1894
2.18939
2.18939
2.1894
2.1894
2.18943
2.18951
2.18968
2.19006
2.19081
2.19216
2.19435
2.31444
2.3117
2.31005
2.30914
2.30868
2.30847
2.30837
2.30834
2.30832
2.30832
2.30832
2.30832
2.30832
2.30832
2.30832
2.30832
2.30832
2.30832
2.30832
2.30832
2.30832
2.30832
2.30834
2.30838
2.30848
2.30871
2.3092
2.31014
2.3118
2.31444
2.43362
2.43038
2.4284
2.42728
2.4267
2.42643
2.42631
2.42626
2.42624
2.42623
2.42623
2.42623
2.42623
2.42624
2.42624
2.42624
2.42624
2.42624
2.42624
2.42623
2.42624
2.42624
2.42626
2.42632
2.42645
2.42674
2.42734
2.4285
2.4305
2.43363
2.55187
2.54807
2.54573
2.54438
2.54368
2.54335
2.5432
2.54313
2.54311
2.5431
2.5431
2.5431
2.5431
2.5431
2.54311
2.54311
2.5431
2.5431
2.5431
2.5431
2.5431
2.54311
2.54314
2.54321
2.54337
2.54373
2.54447
2.54585
2.54822
2.55188
2.66915
2.66476
2.66202
2.66044
2.6596
2.65919
2.65901
2.65893
2.6589
2.65889
2.65889
2.65889
2.65889
2.65889
2.65889
2.65889
2.65889
2.65889
2.65889
2.65889
2.65889
2.6589
2.65894
2.65902
2.65922
2.65966
2.66053
2.66217
2.66493
2.66917
2.78543
2.78041
2.77725
2.77541
2.77442
2.77394
2.77372
2.77362
2.77358
2.77357
2.77357
2.77357
2.77357
2.77357
2.77357
2.77357
2.77357
2.77357
2.77357
2.77357
2.77357
2.77359
2.77363
2.77373
2.77397
2.77449
2.77552
2.77742
2.78061
2.78546
2.90066
2.89497
2.89136
2.88925
2.88811
2.88754
2.88727
2.88716
2.88712
2.8871
2.8871
2.8871
2.8871
2.8871
2.8871
2.8871
2.8871
2.8871
2.8871
2.88709
2.8871
2.88712
2.88717
2.88729
2.88758
2.88818
2.88938
2.89157
2.89521
2.9007
3.01468
3.0083
3.00423
3.00182
3.00051
2.99985
2.99955
2.99941
2.99936
2.99934
2.99933
2.99933
2.99934
2.99934
2.99934
2.99934
2.99934
2.99933
2.99933
2.99933
2.99934
2.99936
2.99942
2.99957
2.9999
3.0006
3.00198
3.00447
3.00858
3.01475
3.127
3.11994
3.1154
3.11269
3.11121
3.11045
3.11009
3.10994
3.10987
3.10985
3.10984
3.10984
3.10985
3.10985
3.10985
3.10985
3.10985
3.10985
3.10984
3.10984
3.10985
3.10987
3.10994
3.11012
3.11051
3.11132
3.11289
3.11569
3.12029
3.12712
3.23623
3.22854
3.22357
3.22057
3.21891
3.21805
3.21764
3.21746
3.21738
3.21736
3.21735
3.21735
3.21735
3.21736
3.21736
3.21736
3.21736
3.21735
3.21735
3.21735
3.21736
3.21738
3.21747
3.21767
3.21811
3.21903
3.2208
3.22392
3.22898
3.23644
3.33876
3.3306
3.32528
3.32203
3.32021
3.31926
3.3188
3.3186
3.31851
3.31848
3.31847
3.31847
3.31848
3.31848
3.31848
3.31848
3.31848
3.31848
3.31847
3.31847
3.31848
3.31851
3.31861
3.31883
3.31934
3.32036
3.32231
3.32571
3.33116
3.3391
3.42647
3.41813
3.41263
3.40924
3.40731
3.40629
3.40579
3.40557
3.40547
3.40544
3.40543
3.40543
3.40544
3.40544
3.40544
3.40544