/*--------------------------------*- C++ -*----------------------------------*\
| =========                 |                                                 |
| \\      /  F ield         | OpenFOAM: The Open Source CFD Toolbox           |
|  \\    /   O peration     | Version:  2506                                  |
|   \\  /    A nd           | Website:  www.openfoam.com                      |
|    \\/     M anipulation  |                                                 |
\*---------------------------------------------------------------------------*/
FoamFile
{
    version     2.0;
    format      ascii;
    arch        "LSB;label=32;scalar=64";
    class       volScalarField;
    location    "20";
    object      p;
}
// * * * * * * * * * * * * * * * * * * * * * * * * * * * * * * * * * * * * * //

dimensions      [0 2 -2 0 0 0 0];

internalField   nonuniform List<scalar> 
144676
(
0.248019
0.248218
0.24848
0.248793
0.249138
0.249533
0.249963
0.250434
0.250934
0.251449
0.251968
0.252466
0.252881
0.253145
0.253247
0.253226
0.253113
0.252895
0.252568
0.252167
0.251742
0.251319
0.250908
0.250528
0.250173
0.249812
0.249455
0.249098
0.248783
0.24851
0.265397
0.265812
0.266109
0.266426
0.26676
0.267139
0.267562
0.268033
0.268542
0.269073
0.269618
0.270133
0.270536
0.270775
0.270872
0.270882
0.270797
0.270582
0.270246
0.269846
0.269423
0.26899
0.268578
0.268207
0.267851
0.267479
0.267107
0.26673
0.266378
0.265913
0.306036
0.306202
0.30645
0.306731
0.307025
0.307377
0.307786
0.308261
0.308773
0.309302
0.30984
0.310339
0.310739
0.310999
0.31115
0.311207
0.311139
0.310926
0.310598
0.310208
0.309782
0.309342
0.308933
0.308562
0.308212
0.307861
0.307524
0.307184
0.306873
0.306638
0.338271
0.338577
0.338835
0.339082
0.339334
0.33965
0.340049
0.34052
0.341023
0.341531
0.342029
0.3425
0.342884
0.343166
0.343357
0.343439
0.343384
0.343181
0.342871
0.342487
0.342048
0.3416
0.341184
0.340811
0.340478
0.340165
0.339876
0.339573
0.339262
0.338894
0.367962
0.36825
0.36847
0.368671
0.368882
0.369179
0.369567
0.370016
0.370465
0.3709
0.371331
0.371745
0.372099
0.372387
0.372588
0.372681
0.372634
0.372452
0.372165
0.371781
0.371332
0.370877
0.370457
0.370096
0.369795
0.369539
0.369312
0.369065
0.368808
0.368509
0.395708
0.395974
0.396153
0.396315
0.396517
0.396815
0.397188
0.397578
0.397939
0.39828
0.398638
0.398988
0.399315
0.399589
0.399793
0.399891
0.399858
0.399705
0.399433
0.399049
0.398601
0.398152
0.397754
0.397431
0.397183
0.396989
0.396817
0.396627
0.396435
0.396209
0.422339
0.422559
0.422693
0.422844
0.423062
0.423369
0.423711
0.42402
0.424285
0.424556
0.424852
0.425164
0.425461
0.425723
0.425929
0.426033
0.426022
0.425894
0.425636
0.425266
0.424843
0.424437
0.4241
0.423841
0.423649
0.423501
0.423366
0.423232
0.42311
0.422938
0.448586
0.448747
0.448857
0.449007
0.449243
0.44954
0.44982
0.45004
0.450234
0.450456
0.450718
0.450996
0.451261
0.451515
0.451716
0.451827
0.451838
0.451732
0.451503
0.451179
0.45082
0.450496
0.450237
0.450034
0.449874
0.449745
0.449641
0.449567
0.449493
0.449343
0.474936
0.475079
0.475173
0.475312
0.475526
0.475768
0.475958
0.476091
0.476224
0.476411
0.476641
0.476868
0.477102
0.477334
0.477524
0.477643
0.47767
0.477596
0.477421
0.477175
0.47691
0.476673
0.476472
0.476291
0.476136
0.476021
0.475959
0.475937
0.475876
0.475732
0.501754
0.501901
0.501956
0.502032
0.502179
0.502324
0.502408
0.502456
0.502535
0.502686
0.502856
0.503031
0.503222
0.503423
0.503602
0.50372
0.503761
0.503725
0.503615
0.503455
0.503279
0.503108
0.502939
0.502771
0.502636
0.502567
0.502562
0.502566
0.502498
0.502382
0.529168
0.529276
0.52925
0.529241
0.529298
0.529348
0.529348
0.529324
0.529364
0.529457
0.529568
0.529686
0.529826
0.529997
0.530152
0.530252
0.530296
0.530283
0.53022
0.530127
0.530019
0.529903
0.52978
0.529664
0.529595
0.529595
0.529627
0.529623
0.529553
0.529497
0.557069
0.557074
0.556969
0.556893
0.556895
0.556891
0.556831
0.556769
0.556756
0.556794
0.556845
0.556896
0.556989
0.557117
0.557226
0.557293
0.557315
0.557296
0.557255
0.557206
0.557157
0.557119
0.557093
0.557082
0.557104
0.55715
0.557169
0.557124
0.557066
0.557069
0.585231
0.585132
0.584992
0.584891
0.584873
0.584837
0.584744
0.584642
0.584579
0.58457
0.584553
0.584551
0.58459
0.584654
0.584708
0.584732
0.584719
0.584684
0.584652
0.584639
0.584662
0.584734
0.584832
0.584929
0.585007
0.585044
0.585009
0.584924
0.584883
0.584904
0.613462
0.613315
0.613169
0.613059
0.613021
0.612958
0.612841
0.612704
0.612624
0.612569
0.612512
0.612465
0.612437
0.612438
0.612444
0.612433
0.612401
0.612363
0.612341
0.612365
0.612464
0.612635
0.612825
0.612977
0.613056
0.613047
0.612961
0.612856
0.612814
0.612829
0.641598
0.641448
0.641293
0.641159
0.641104
0.641041
0.640921
0.640805
0.640721
0.640654
0.640576
0.640475
0.640387
0.640341
0.640316
0.640297
0.640276
0.640249
0.640242
0.640297
0.640445
0.640664
0.64088
0.64103
0.641076
0.641034
0.640932
0.640812
0.640753
0.640788
0.669491
0.669339
0.669163
0.669033
0.669017
0.669
0.668948
0.668875
0.668806
0.668739
0.668617
0.668466
0.668339
0.668262
0.668227
0.668222
0.668218
0.668201
0.668201
0.668266
0.668419
0.66863
0.668826
0.66895
0.668977
0.668933
0.668822
0.66868
0.668628
0.668718
0.696986
0.696824
0.696673
0.696628
0.696723
0.696823
0.69685
0.696814
0.696753
0.696643
0.696476
0.696305
0.696164
0.696077
0.696045
0.696043
0.696038
0.696021
0.69602
0.696076
0.696211
0.696392
0.69656
0.696671
0.696685
0.696608
0.69645
0.696304
0.696291
0.696407
0.723992
0.723842
0.723779
0.723884
0.724135
0.72436
0.724451
0.724438
0.724341
0.724188
0.724018
0.723863
0.72374
0.723661
0.723615
0.723588
0.723571
0.723554
0.723553
0.723599
0.723705
0.723854
0.724014
0.724116
0.724061
0.723873
0.723647
0.723504
0.723489
0.723582
0.750376
0.750268
0.750326
0.750596
0.751011
0.751343
0.751508
0.751495
0.751376
0.751229
0.751091
0.750982
0.750897
0.750816
0.750735
0.750683
0.750663
0.750651
0.750643
0.750658
0.750724
0.750862
0.751034
0.75109
0.750907
0.750587
0.750281
0.750072
0.749981
0.750061
0.776011
0.775944
0.776123
0.77657
0.777151
0.777623
0.777856
0.777874
0.777781
0.777658
0.777555
0.777493
0.777426
0.777324
0.77722
0.777168
0.777154
0.777124
0.777069
0.777024
0.777058
0.777201
0.777358
0.777331
0.777034
0.776609
0.776177
0.775821
0.775642
0.775739
0.800755
0.800735
0.801057
0.801691
0.802464
0.803085
0.803413
0.803497
0.803423
0.803304
0.803219
0.80317
0.8031
0.802997
0.802912
0.802878
0.80285
0.802767
0.802637
0.802538
0.802555
0.802682
0.802778
0.802659
0.802271
0.801734
0.801137
0.800629
0.800387
0.800477
0.824509
0.824557
0.825037
0.825872
0.826838
0.827607
0.82805
0.828175
0.828106
0.827989
0.827901
0.827852
0.827803
0.827737
0.827684
0.82766
0.82761
0.827476
0.827288
0.827158
0.827159
0.827232
0.827216
0.826968
0.826465
0.825795
0.825033
0.824384
0.824055
0.8241
0.847234
0.847344
0.847966
0.848989
0.850136
0.851051
0.851575
0.851748
0.851728
0.851639
0.85156
0.851531
0.851513
0.851471
0.851441
0.851446
0.851403
0.851235
0.851003
0.850846
0.850808
0.850777
0.850608
0.850218
0.849595
0.848772
0.847819
0.846993
0.846528
0.846513
0.868894
0.869025
0.869781
0.870956
0.872258
0.87329
0.873914
0.874215
0.874303
0.874273
0.874219
0.874197
0.874179
0.874155
0.874175
0.874233
0.874196
0.873994
0.873731
0.873542
0.873425
0.87327
0.872984
0.872501
0.871755
0.870743
0.869574
0.868551
0.867928
0.867833
0.889746
0.889866
0.890699
0.892001
0.893417
0.894584
0.895381
0.89585
0.896061
0.896092
0.896047
0.896014
0.896004
0.896018
0.896083
0.896147
0.896081
0.895863
0.8956
0.895378
0.89518
0.894945
0.894602
0.894039
0.893156
0.891975
0.890638
0.889443
0.88866
0.888493
0.910584
0.910642
0.911485
0.912847
0.914385
0.915716
0.916683
0.917291
0.917603
0.917678
0.917634
0.917603
0.91761
0.91764
0.917691
0.917704
0.917605
0.917411
0.917191
0.916976
0.916753
0.916484
0.91608
0.915414
0.914421
0.913144
0.911689
0.910353
0.909463
0.909318
0.932786
0.932726
0.933501
0.934849
0.936479
0.937917
0.938992
0.939701
0.94008
0.940176
0.940137
0.940113
0.940136
0.940175
0.940199
0.940164
0.940053
0.939905
0.939757
0.939598
0.939396
0.939095
0.93861
0.937856
0.9368
0.935448
0.933888
0.93249
0.931634
0.931646
0.958576
0.958338
0.958877
0.960107
0.961694
0.963164
0.96431
0.965086
0.965499
0.96561
0.965588
0.965593
0.96565
0.965702
0.965692
0.965603
0.96547
0.965361
0.965293
0.965216
0.965053
0.964733
0.964197
0.963402
0.962296
0.96086
0.959252
0.957945
0.95731
0.957584
0.992717
0.9923
0.992457
0.993419
0.994892
0.996369
0.997569
0.99839
0.998822
0.998958
0.998978
0.999013
0.99906
0.999055
0.998969
0.998832
0.99872
0.998693
0.99873
0.998732
0.998595
0.998255
0.997693
0.996867
0.995702
0.994213
0.992657
0.991576
0.991288
0.991788
1.0387
1.03699
1.03662
1.03727
1.03865
1.04012
1.04137
1.04223
1.04269
1.04286
1.04291
1.04293
1.04291
1.04283
1.0427
1.04258
1.04255
1.04262
1.04272
1.04273
1.04255
1.04216
1.04157
1.04073
1.03953
1.03807
1.03664
1.03587
1.03607
1.0378
0.261745
0.261971
0.262198
0.262457
0.262765
0.263157
0.263597
0.26409
0.264609
0.265129
0.265647
0.266133
0.266536
0.266805
0.266947
0.266977
0.26688
0.266633
0.266258
0.265826
0.265381
0.264942
0.264533
0.264167
0.263824
0.263462
0.263117
0.262781
0.262495
0.262261
0.281301
0.281536
0.281759
0.28202
0.282331
0.282725
0.283165
0.28365
0.284158
0.28467
0.28519
0.285687
0.286093
0.286375
0.286545
0.286603
0.286509
0.286249
0.285878
0.285457
0.285014
0.284574
0.284166
0.283798
0.283451
0.283086
0.282736
0.282381
0.282077
0.281821
0.317191
0.317259
0.317469
0.317701
0.317976
0.318337
0.318757
0.319241
0.31974
0.320247
0.320758
0.321249
0.321665
0.321979
0.322187
0.322262
0.322171
0.321926
0.321579
0.321171
0.320723
0.320275
0.31986
0.31949
0.31916
0.31883
0.318519
0.318202
0.31791
0.3178
0.345113
0.345357
0.345576
0.345779
0.346012
0.346336
0.346737
0.3472
0.347676
0.348149
0.348635
0.349106
0.34952
0.349847
0.350067
0.350148
0.35007
0.349857
0.34954
0.349134
0.348672
0.348206
0.347776
0.347407
0.347103
0.346825
0.346566
0.346285
0.345999
0.345718
0.372942
0.373108
0.373272
0.373429
0.373628
0.37393
0.374308
0.374719
0.375125
0.375533
0.375963
0.376397
0.376791
0.377113
0.377332
0.377417
0.377363
0.377186
0.376887
0.376473
0.375993
0.375512
0.375083
0.374739
0.374482
0.37427
0.374079
0.373864
0.373654
0.373484
0.399274
0.399411
0.399541
0.399681
0.399888
0.400186
0.400524
0.400855
0.401172
0.401504
0.40188
0.402271
0.402639
0.40295
0.403168
0.403265
0.403239
0.403086
0.402788
0.402364
0.401879
0.401414
0.401027
0.40074
0.40054
0.400385
0.400244
0.400097
0.399961
0.399846
0.424929
0.425029
0.425147
0.425306
0.425543
0.425838
0.426119
0.426366
0.426598
0.426876
0.427201
0.427549
0.427889
0.428186
0.428404
0.428515
0.428511
0.428371
0.428079
0.42767
0.427224
0.426827
0.426523
0.426301
0.426141
0.426012
0.425903
0.425828
0.425765
0.425678
0.450606
0.450684
0.450808
0.450996
0.451257
0.451523
0.451734
0.451898
0.452071
0.452299
0.452571
0.452866
0.453163
0.45344
0.453652
0.45377
0.453782
0.453663
0.453411
0.453068
0.452713
0.452416
0.45219
0.452004
0.451848
0.451723
0.451647
0.451636
0.451608
0.45153
0.476664
0.476757
0.47689
0.477077
0.477314
0.477519
0.477645
0.477729
0.477852
0.478022
0.478228
0.478448
0.478692
0.478936
0.479133
0.479254
0.479285
0.479212
0.479038
0.478801
0.478557
0.47835
0.478165
0.477979
0.477816
0.477708
0.477676
0.477699
0.477665
0.477595
0.503365
0.503469
0.503569
0.503704
0.503878
0.503992
0.504027
0.504048
0.504111
0.504224
0.504349
0.504492
0.504679
0.504884
0.505058
0.505175
0.505225
0.505205
0.505121
0.504992
0.504842
0.504696
0.504535
0.50436
0.504228
0.504173
0.504177
0.504191
0.504148
0.504112
0.530745
0.530806
0.530841
0.530905
0.531001
0.531033
0.531002
0.530969
0.530987
0.53104
0.531092
0.531169
0.531299
0.531457
0.531596
0.531692
0.531743
0.531756
0.531738
0.531685
0.531609
0.531525
0.53142
0.531313
0.531256
0.531252
0.531252
0.531234
0.5312
0.531199
0.55865
0.558631
0.558616
0.558623
0.558662
0.558637
0.558552
0.558484
0.558465
0.558464
0.558459
0.558478
0.558549
0.558649
0.558735
0.558788
0.558814
0.558831
0.558843
0.558842
0.558842
0.558851
0.558851
0.558853
0.558869
0.558875
0.558833
0.558776
0.558751
0.558749
0.586874
0.586794
0.586757
0.586719
0.58671
0.586635
0.586518
0.586421
0.586372
0.586338
0.58629
0.586255
0.586263
0.586296
0.586323
0.586326
0.586318
0.586324
0.586348
0.586392
0.586478
0.5866
0.586714
0.586802
0.58684
0.586822
0.58673
0.586637
0.586601
0.586573
0.615202
0.615109
0.615039
0.614953
0.614899
0.614793
0.61467
0.614569
0.614521
0.614472
0.614391
0.614303
0.614244
0.614214
0.614191
0.614162
0.614138
0.61414
0.614177
0.614266
0.614429
0.614632
0.61481
0.614925
0.614956
0.614919
0.614795
0.61467
0.614605
0.614565
0.643417
0.643316
0.643213
0.643099
0.643048
0.642979
0.642888
0.642832
0.642797
0.642734
0.642613
0.642464
0.642342
0.642262
0.642213
0.642182
0.642167
0.64218
0.642234
0.642353
0.64255
0.642776
0.642963
0.64308
0.643113
0.643083
0.642942
0.642782
0.642678
0.642651
0.671334
0.671226
0.671126
0.671069
0.671121
0.671151
0.671149
0.671132
0.671086
0.67098
0.670796
0.67059
0.670422
0.670316
0.670264
0.670246
0.670249
0.67028
0.670348
0.670467
0.670652
0.670861
0.671043
0.671172
0.67122
0.671194
0.671024
0.670816
0.670677
0.670668
0.698829
0.698749
0.698742
0.698849
0.69907
0.699238
0.699314
0.69929
0.699193
0.699013
0.698776
0.698545
0.698365
0.698253
0.698201
0.698188
0.698208
0.698257
0.698323
0.698419
0.698578
0.698778
0.698976
0.699118
0.699149
0.699066
0.698815
0.698553
0.698393
0.698385
0.725844
0.725828
0.725976
0.726295
0.726713
0.72701
0.727117
0.727067
0.726902
0.726669
0.726429
0.726219
0.726058
0.725943
0.725876
0.725862
0.725897
0.725955
0.726008
0.726086
0.726234
0.726442
0.726664
0.726794
0.726729
0.7265
0.726135
0.725819
0.725621
0.725598
0.752246
0.752312
0.752631
0.753165
0.753781
0.754193
0.754345
0.754278
0.754077
0.753847
0.753643
0.75348
0.753338
0.753207
0.75312
0.753106
0.753146
0.753196
0.753229
0.753283
0.753414
0.753633
0.753872
0.753945
0.753733
0.753348
0.752875
0.752465
0.752179
0.752114
0.777845
0.778006
0.778504
0.779276
0.780083
0.780642
0.780864
0.780809
0.780618
0.78041
0.780246
0.780116
0.779975
0.779823
0.779724
0.779712
0.779746
0.779765
0.779751
0.779757
0.779861
0.780078
0.780292
0.78028
0.779963
0.779485
0.778887
0.778304
0.777884
0.777758
0.802517
0.802786
0.803487
0.804492
0.805526
0.806235
0.806537
0.806521
0.806346
0.806152
0.806007
0.80589
0.805748
0.805596
0.805514
0.805519
0.805532
0.805486
0.8054
0.805359
0.805435
0.805606
0.805738
0.805647
0.805284
0.804718
0.803932
0.803135
0.802579
0.802385
0.826165
0.826564
0.82747
0.828704
0.82995
0.830795
0.831182
0.831213
0.831064
0.830888
0.830756
0.830656
0.830538
0.830423
0.830384
0.830398
0.830364
0.83024
0.830092
0.830018
0.830054
0.83014
0.830163
0.829992
0.829553
0.828827
0.82781
0.82681
0.826114
0.825822
0.848643
0.849157
0.850253
0.851714
0.853125
0.854109
0.854593
0.854708
0.854633
0.854503
0.854404
0.854338
0.854256
0.85418
0.854168
0.85418
0.854109
0.853933
0.85374
0.853632
0.853615
0.853606
0.853515
0.853234
0.852648
0.851707
0.85046
0.849247
0.84836
0.847916
0.869815
0.870413
0.87168
0.873326
0.874916
0.876048
0.876679
0.876949
0.876994
0.876932
0.876859
0.876805
0.876742
0.876695
0.876713
0.876742
0.876665
0.876464
0.876239
0.876085
0.875991
0.875881
0.875685
0.875281
0.874527
0.873383
0.871918
0.870453
0.86931
0.868694
0.889794
0.890453
0.891858
0.893674
0.895462
0.896777
0.897611
0.898056
0.898215
0.898189
0.898113
0.898065
0.898033
0.898027
0.898073
0.898107
0.89802
0.89781
0.897569
0.897365
0.897191
0.897002
0.896726
0.896213
0.89532
0.894014
0.892337
0.890604
0.889209
0.888481
0.909277
0.909908
0.911402
0.913374
0.915342
0.916862
0.917876
0.918456
0.918686
0.918677
0.918614
0.918597
0.918604
0.918623
0.918663
0.918661
0.918548
0.918349
0.918131
0.917925
0.917726
0.917499
0.917154
0.916536
0.915522
0.914062
0.912174
0.910222
0.90868
0.907966
0.92952
0.930041
0.93148
0.933509
0.935604
0.937273
0.938422
0.93911
0.939399
0.939425
0.939391
0.939397
0.939429
0.939469
0.939491
0.939436
0.939291
0.93912
0.938967
0.938822
0.938653
0.938406
0.937988
0.937274
0.936141
0.934512
0.932443
0.93039
0.928873
0.928316
0.95255
0.952719
0.953862
0.955766
0.957879
0.959643
0.960926
0.961711
0.962047
0.962101
0.962071
0.962071
0.962114
0.962157
0.962137
0.962024
0.961874
0.961771
0.961725
0.961677
0.961556
0.961293
0.960821
0.960035
0.958785
0.957012
0.954867
0.952897
0.951634
0.951462
0.98079
0.980512
0.981179
0.982803
0.984846
0.986688
0.988087
0.988932
0.989293
0.989364
0.989333
0.989315
0.989327
0.989316
0.98924
0.989127
0.989057
0.989076
0.989138
0.989145
0.989013
0.988702
0.988186
0.987342
0.985998
0.984161
0.982076
0.98037
0.979554
0.979797
1.01979
1.01793
1.01796
1.01922
1.02116
1.02304
1.02453
1.02543
1.02583
1.02593
1.02592
1.02589
1.02585
1.02576
1.02565
1.02557
1.0256
1.0257
1.02579
1.02576
1.02554
1.02518
1.02464
1.02376
1.02238
1.0206
1.01869
1.01738
1.0172
1.01898
0.302518
0.302595
0.302751
0.302949
0.303242
0.303625
0.304052
0.304555
0.305091
0.305634
0.306173
0.306688
0.307132
0.307473
0.30769
0.307759
0.30764
0.307335
0.306908
0.306421
0.305915
0.305423
0.30498
0.304604
0.304288
0.303963
0.303654
0.30338
0.303151
0.303076
0.308625
0.308831
0.309037
0.30926
0.309566
0.309944
0.310359
0.310843
0.311358
0.311891
0.312435
0.312962
0.313421
0.313778
0.314014
0.314086
0.313958
0.313656
0.313241
0.312762
0.312255
0.311758
0.311308
0.310925
0.310617
0.310303
0.309994
0.309703
0.30942
0.309202
0.334115
0.334264
0.3345
0.334693
0.334953
0.335282
0.335662
0.336129
0.336635
0.33716
0.337701
0.338224
0.338686
0.33905
0.339288
0.339353
0.339235
0.338967
0.338587
0.338123
0.337611
0.337102
0.336637
0.336255
0.335978
0.335723
0.335476
0.335238
0.334953
0.334775
0.356015
0.356294
0.356505
0.356659
0.35686
0.357134
0.357481
0.357908
0.358382
0.358881
0.359403
0.359915
0.360366
0.360723
0.360946
0.361011
0.360923
0.360701
0.360354
0.359896
0.359371
0.358839
0.358361
0.357991
0.357754
0.357577
0.357412
0.357232
0.35698
0.356666
0.38062
0.380754
0.380888
0.380981
0.381135
0.381365
0.381663
0.382034
0.382442
0.382891
0.383377
0.383859
0.384292
0.384635
0.384852
0.384933
0.384882
0.384696
0.384364
0.383898
0.383358
0.382821
0.38236
0.382029
0.381845
0.381744
0.381666
0.381579
0.381431
0.381282
0.404444
0.404564
0.404675
0.404756
0.404898
0.405103
0.405346
0.405639
0.405973
0.406365
0.406799
0.407242
0.407654
0.407986
0.40821
0.408313
0.40829
0.408122
0.40779
0.407321
0.406792
0.406294
0.405895
0.405621
0.405479
0.405417
0.405393
0.405398
0.405342
0.405232
0.428574
0.428678
0.428799
0.428913
0.429078
0.42926
0.429448
0.429662
0.429927
0.430249
0.430615
0.431006
0.431381
0.431702
0.431929
0.432042
0.432035
0.43188
0.431567
0.431137
0.430672
0.430264
0.429947
0.429717
0.429579
0.429515
0.429527
0.429619
0.429648
0.429566
0.453463
0.453579
0.453743
0.453902
0.454092
0.45425
0.454382
0.454524
0.454717
0.454954
0.455236
0.455545
0.455867
0.456159
0.456369
0.456484
0.456494
0.456375
0.45613
0.455794
0.455438
0.455132
0.454874
0.454648
0.454486
0.454411
0.454455
0.4546
0.454653
0.454577
0.479153
0.479319
0.47952
0.479712
0.479896
0.480015
0.480086
0.480166
0.480279
0.480428
0.480604
0.480818
0.481073
0.481313
0.481493
0.481605
0.481641
0.481592
0.481456
0.481244
0.481006
0.48078
0.480544
0.48031
0.48014
0.480081
0.480148
0.480282
0.480299
0.480212
0.505722
0.505925
0.506131
0.506309
0.506468
0.506538
0.506552
0.506576
0.506624
0.50669
0.506767
0.506898
0.507075
0.507252
0.507393
0.507491
0.507552
0.507579
0.507552
0.507454
0.507315
0.507149
0.506943
0.506741
0.506614
0.506592
0.506644
0.506717
0.506677
0.506592
0.533122
0.5333
0.533493
0.533645
0.533764
0.533784
0.533758
0.533737
0.533743
0.533742
0.533754
0.533811
0.53391
0.534019
0.534103
0.534164
0.534229
0.534303
0.53435
0.53434
0.534288
0.534199
0.53407
0.53396
0.533907
0.533903
0.533898
0.533894
0.533799
0.533702
0.56115
0.561292
0.561472
0.561594
0.561668
0.561643
0.561581
0.561535
0.561507
0.561474
0.561442
0.561434
0.561462
0.561493
0.561502
0.561509
0.56155
0.561635
0.561722
0.561782
0.561825
0.56184
0.561828
0.561828
0.561827
0.561805
0.561731
0.561656
0.561493
0.561349
0.589573
0.589695
0.589872
0.589956
0.589991
0.589926
0.589839
0.589776
0.58974
0.589696
0.589626
0.589562
0.589516
0.589466
0.589403
0.589356
0.589365
0.589445
0.58956
0.589685
0.589826
0.589949
0.590044
0.590117
0.59013
0.590081
0.589948
0.589802
0.589552
0.589347
0.61812
0.618253
0.618415
0.618478
0.618498
0.618433
0.61835
0.6183
0.618275
0.618213
0.618106
0.617981
0.617857
0.617738
0.617627
0.617546
0.617542
0.617628
0.61777
0.617955
0.618173
0.618369
0.618521
0.618625
0.618652
0.6186
0.618418
0.618189
0.617843
0.617593
0.646529
0.646689
0.646876
0.64699
0.647074
0.647077
0.647048
0.647025
0.646983
0.646883
0.646715
0.646511
0.64632
0.646158
0.646024
0.645943
0.645953
0.646059
0.646227
0.646448
0.646703
0.646922
0.647094
0.647232
0.647296
0.647247
0.647007
0.646679
0.646239
0.645958
0.67463
0.674847
0.675147
0.67542
0.67568
0.6758
0.675837
0.675795
0.675694
0.675511
0.675253
0.674982
0.674749
0.674566
0.674433
0.674373
0.674413
0.674542
0.674724
0.674953
0.675206
0.675428
0.675631
0.675816
0.675911
0.675837
0.675505
0.675061
0.674541
0.674229
0.702348
0.702674
0.703172
0.703702
0.704174
0.704431
0.704481
0.704382
0.704183
0.703894
0.703572
0.703272
0.703023
0.702833
0.702709
0.702674
0.702747
0.7029
0.703085
0.703298
0.703541
0.703782
0.704034
0.704257
0.704333
0.70416
0.703695
0.703139
0.702546
0.702171
0.729599
0.730061
0.730809
0.731623
0.73231
0.732677
0.732733
0.732572
0.732273
0.731923
0.731589
0.731295
0.731045
0.730849
0.730728
0.730718
0.730827
0.730995
0.731164
0.731354
0.731588
0.731859
0.732165
0.732391
0.732365
0.732038
0.731443
0.730769
0.730056
0.729581
0.756189
0.756797
0.7578
0.758898
0.759816
0.760305
0.7604
0.760194
0.759854
0.7595
0.759181
0.758899
0.758643
0.75843
0.758309
0.758322
0.758448
0.758602
0.758734
0.758882
0.759097
0.759401
0.759747
0.759927
0.759777
0.75933
0.758614
0.757747
0.756841
0.756253
0.78192
0.782697
0.783961
0.785363
0.786532
0.78718
0.787327
0.78713
0.786799
0.786452
0.786145
0.78587
0.785598
0.785366
0.785249
0.785274
0.785384
0.78549
0.785559
0.78565
0.785842
0.786154
0.786486
0.786608
0.7864
0.785875
0.78497
0.783824
0.782703
0.782008
0.806677
0.807632
0.80919
0.8109
0.812319
0.81312
0.813346
0.813196
0.812878
0.81254
0.81225
0.811979
0.811699
0.811469
0.811373
0.811403
0.811469
0.811502
0.811507
0.811552
0.811701
0.81196
0.812233
0.812324
0.812086
0.811424
0.810253
0.808827
0.807509
0.806681
0.830325
0.83148
0.833306
0.835312
0.836957
0.83791
0.838239
0.838144
0.837865
0.837562
0.837298
0.837046
0.836787
0.836592
0.836525
0.836541
0.836552
0.836522
0.836476
0.836471
0.836554
0.83673
0.83693
0.836965
0.836623
0.835751
0.834319
0.832635
0.831081
0.830046
0.852649
0.853978
0.856063
0.858343
0.860214
0.861334
0.86178
0.86179
0.861599
0.86135
0.861121
0.860908
0.860695
0.860544
0.860503
0.860514
0.86049
0.860406
0.8603
0.860237
0.860252
0.860336
0.860429
0.860345
0.859836
0.858747
0.857062
0.855065
0.853179
0.851896
0.873299
0.874772
0.877145
0.879706
0.881829
0.88314
0.883764
0.883934
0.883842
0.883641
0.883444
0.883273
0.883118
0.883029
0.883033
0.88306
0.88301
0.882867
0.882699
0.882577
0.882515
0.882497
0.882475
0.882256
0.881577
0.880272
0.878289
0.875901
0.873632
0.872131
0.892093
0.893739
0.896378
0.899261
0.901657
0.903217
0.904064
0.904384
0.904365
0.904195
0.904025
0.903906
0.903825
0.9038
0.903838
0.903854
0.903761
0.90357
0.903362
0.903197
0.903082
0.903009
0.902911
0.902567
0.901709
0.900156
0.897831
0.895043
0.892428
0.890763
0.909366
0.911101
0.913959
0.917131
0.919823
0.921658
0.922704
0.923147
0.923194
0.923058
0.922924
0.922853
0.922828
0.922845
0.922884
0.922859
0.922717
0.922507
0.922307
0.92216
0.922067
0.921992
0.921821
0.921331
0.920264
0.918425
0.915756
0.912629
0.909774
0.908041
0.925739
0.92739
0.930304
0.933654
0.936607
0.938682
0.939931
0.940514
0.940633
0.940533
0.940416
0.940362
0.940373
0.940426
0.940452
0.940371
0.940194
0.940006
0.939871
0.939802
0.939766
0.939686
0.939434
0.938802
0.937519
0.935389
0.93242
0.929078
0.926161
0.924501
0.942152
0.943411
0.946068
0.949405
0.952499
0.954805
0.956283
0.956987
0.957145
0.95705
0.956912
0.956845
0.956873
0.956928
0.95691
0.956791
0.956641
0.956543
0.956521
0.956541
0.956536
0.956424
0.956105
0.955362
0.953887
0.951526
0.948388
0.945049
0.942349
0.941056
0.958781
0.959459
0.961565
0.964653
0.967776
0.970288
0.971938
0.97271
0.972898
0.972819
0.972679
0.972605
0.972603
0.972593
0.972519
0.972421
0.972368
0.97239
0.97245
0.972483
0.972431
0.972261
0.971897
0.971074
0.969461
0.966984
0.963855
0.960766
0.958596
0.95787
0.978662
0.978102
0.979466
0.982155
0.98521
0.9878
0.98955
0.990402
0.990652
0.990619
0.990507
0.990419
0.990344
0.990244
0.990138
0.99009
0.990131
0.990224
0.99029
0.990262
0.99013
0.989917
0.989531
0.988655
0.98698
0.984526
0.981564
0.97889
0.977471
0.977959
0.337497
0.337564
0.337712
0.337918
0.338208
0.338521
0.338893
0.339423
0.340048
0.340715
0.34138
0.342
0.342532
0.342944
0.343208
0.343273
0.343109
0.342743
0.342238
0.341648
0.34102
0.34041
0.33987
0.339445
0.339167
0.338916
0.338644
0.338421
0.338238
0.338178
0.334025
0.334349
0.334608
0.334847
0.335134
0.335414
0.335763
0.336283
0.336906
0.337575
0.338243
0.33886
0.339386
0.339798
0.340061
0.340121
0.339958
0.339604
0.33911
0.338522
0.337891
0.337271
0.336714
0.336279
0.336012
0.335791
0.33554
0.335315
0.335055
0.334739
0.352291
0.352561
0.352827
0.352999
0.3532
0.353402
0.353721
0.354228
0.354844
0.355497
0.356144
0.356737
0.357247
0.357644
0.357887
0.357936
0.357791
0.357479
0.357025
0.356461
0.355828
0.355187
0.354606
0.354167
0.353938
0.353814
0.353683
0.353554
0.353307
0.353029
0.369463
0.369757
0.369935
0.370005
0.370097
0.370237
0.370516
0.370994
0.371568
0.372187
0.372804
0.373379
0.373872
0.374248
0.374471
0.374524
0.374416
0.374153
0.373741
0.373191
0.372548
0.371884
0.371289
0.370861
0.370681
0.370669
0.370678
0.37066
0.370492
0.370176
0.390574
0.39067
0.390718
0.390674
0.390677
0.39076
0.390999
0.391416
0.391932
0.3925
0.393079
0.393631
0.39411
0.394475
0.394696
0.394771
0.394703
0.39448
0.394089
0.393542
0.392893
0.392234
0.391666
0.391279
0.391152
0.391222
0.391357
0.391485
0.391459
0.391356
0.411476
0.411566
0.411576
0.411484
0.411454
0.411504
0.411696
0.412039
0.412486
0.412986
0.413516
0.414035
0.414498
0.414859
0.415088
0.415182
0.41514
0.41494
0.414563
0.414029
0.41341
0.412808
0.412308
0.411972
0.411867
0.411958
0.412163
0.412415
0.412506
0.412423
0.433925
0.434011
0.434035
0.433974
0.433956
0.433994
0.434138
0.434409
0.434765
0.43518
0.435629
0.43609
0.436519
0.436859
0.43708
0.437179
0.437154
0.43698
0.436644
0.436168
0.43563
0.435125
0.4347
0.434391
0.434264
0.434336
0.434573
0.434912
0.435087
0.435031
0.457953
0.458083
0.458182
0.458188
0.458215
0.45825
0.45835
0.458543
0.458801
0.459101
0.459441
0.459813
0.460174
0.460465
0.460654
0.460748
0.460747
0.460633
0.460385
0.460014
0.459591
0.459183
0.458805
0.458496
0.45834
0.458392
0.458637
0.458987
0.459148
0.459091
0.483226
0.483451
0.483639
0.483724
0.48379
0.483823
0.483884
0.484003
0.484158
0.484341
0.48456
0.484823
0.485092
0.485307
0.485451
0.485536
0.485574
0.485548
0.485417
0.485173
0.484867
0.484537
0.484193
0.4839
0.483751
0.483804
0.484017
0.484286
0.484349
0.484265
0.509654
0.509957
0.510226
0.510373
0.510469
0.510497
0.510527
0.510584
0.51066
0.510748
0.510863
0.511022
0.511186
0.511314
0.511397
0.51146
0.511531
0.511587
0.511565
0.511442
0.511245
0.510992
0.510715
0.510495
0.510401
0.510456
0.510582
0.510708
0.510649
0.510532
0.53706
0.537404
0.537749
0.537944
0.538062
0.538075
0.538075
0.538088
0.538117
0.538139
0.538179
0.538243
0.538306
0.538338
0.538341
0.538359
0.538432
0.538536
0.538598
0.538582
0.538497
0.538353
0.538195
0.538095
0.538071
0.538097
0.538109
0.538091
0.5379
0.537708
0.565189
0.56557
0.565982
0.566214
0.566325
0.566317
0.566279
0.566268
0.566263
0.566254
0.566238
0.566221
0.566188
0.566119
0.566031
0.565985
0.566034
0.566157
0.566284
0.566372
0.566411
0.566398
0.566381
0.566399
0.566412
0.566393
0.566317
0.56617
0.565816
0.565498
0.593768
0.594202
0.594682
0.594933
0.595034
0.594999
0.594943
0.594909
0.594894
0.594864
0.594797
0.594706
0.594581
0.594419
0.594251
0.594145
0.594168
0.594308
0.594495
0.594684
0.594845
0.594951
0.595046
0.595137
0.595165
0.595125
0.594988
0.594694
0.594153
0.5937
0.622493
0.623007
0.623553
0.623853
0.623992
0.623974
0.623922
0.623881
0.623852
0.62378
0.623651
0.623477
0.623268
0.623036
0.622813
0.622676
0.622698
0.622865
0.623109
0.623386
0.623636
0.623818
0.623977
0.62412
0.624195
0.624165
0.62395
0.623489
0.622776
0.622193
0.651102
0.651723
0.652396
0.652843
0.653109
0.65317
0.65314
0.653081
0.652989
0.652832
0.652607
0.652343
0.652067
0.65179
0.651545
0.651412
0.651457
0.651654
0.651942
0.652275
0.652571
0.652787
0.653001
0.653232
0.65338
0.65334
0.653019
0.652397
0.651517
0.650793
0.679445
0.68021
0.681122
0.681826
0.682293
0.682459
0.682442
0.682303
0.68209
0.681805
0.681471
0.681134
0.680813
0.680513
0.680272
0.680166
0.680244
0.680471
0.680787
0.681136
0.681436
0.681688
0.681997
0.682335
0.682528
0.682438
0.681989
0.681195
0.680128
0.679251
0.707416
0.708383
0.709591
0.71062
0.711313
0.71159
0.71154
0.711289
0.71093
0.710517
0.710105
0.709726
0.709379
0.709072
0.708845
0.708775
0.708898
0.709161
0.709479
0.709806
0.710116
0.710445
0.710862
0.71127
0.711454
0.711266
0.71065
0.709653
0.708381
0.707357
0.734874
0.736048
0.737585
0.738949
0.739896
0.74027
0.740199
0.739847
0.739368
0.738879
0.738429
0.738031
0.737668
0.73735
0.737142
0.737123
0.737303
0.73758
0.737865
0.738166
0.738504
0.738911
0.739404
0.739832
0.739948
0.739622
0.738818
0.73759
0.736097
0.734923
0.761591
0.762968
0.764857
0.766584
0.767796
0.768299
0.768249
0.767838
0.767303
0.766779
0.766313
0.765897
0.765504
0.765172
0.76499
0.765019
0.765221
0.76547
0.765705
0.765974
0.766322
0.766781
0.767318
0.767721
0.767748
0.767299
0.766306
0.764813
0.763065
0.761721
0.787355
0.788997
0.791236
0.793349
0.794839
0.795514
0.795509
0.795097
0.794545
0.794001
0.793523