/*--------------------------------*- C++ -*----------------------------------*\
| =========                 |                                                 |
| \\      /  F ield         | OpenFOAM: The Open Source CFD Toolbox           |
|  \\    /   O peration     | Version:  2506                                  |
|   \\  /    A nd           | Website:  www.openfoam.com                      |
|    \\/     M anipulation  |                                                 |
\*---------------------------------------------------------------------------*/
FoamFile
{
    version     2.0;
    format      ascii;
    arch        "LSB;label=32;scalar=64";
    class       volScalarField;
    location    "70";
    object      epsilon;
}
// * * * * * * * * * * * * * * * * * * * * * * * * * * * * * * * * * * * * * //

dimensions      [0 2 -3 0 0 0 0];

internalField   nonuniform List<scalar> 
144676
(
0.116221
0.116222
0.116222
0.116222
0.116222
0.116222
0.116222
0.116222
0.116222
0.116222
0.116222
0.116222
0.116222
0.116221
0.116221
0.116221
0.116221
0.116222
0.116222
0.116222
0.116222
0.116222
0.116222
0.116222
0.116222
0.116222
0.116222
0.116222
0.116222
0.116221
0.0471258
0.0471259
0.047126
0.0471261
0.0471262
0.0471263
0.0471264
0.0471265
0.0471266
0.0471267
0.0471268
0.0471269
0.047127
0.047127
0.047127
0.047127
0.047127
0.047127
0.0471269
0.0471268
0.0471267
0.0471266
0.0471265
0.0471264
0.0471263
0.0471262
0.0471261
0.047126
0.0471259
0.0471258
0.0283363
0.0283363
0.0283363
0.0283364
0.0283364
0.0283365
0.0283366
0.0283367
0.0283367
0.0283368
0.0283369
0.028337
0.028337
0.028337
0.0283371
0.0283371
0.028337
0.028337
0.028337
0.0283369
0.0283368
0.0283367
0.0283367
0.0283366
0.0283365
0.0283364
0.0283364
0.0283363
0.0283363
0.0283363
0.0202976
0.0202976
0.0202976
0.0202976
0.0202977
0.0202977
0.0202978
0.0202978
0.0202979
0.020298
0.020298
0.0202981
0.0202981
0.0202982
0.0202982
0.0202982
0.0202982
0.0202981
0.0202981
0.020298
0.020298
0.0202979
0.0202978
0.0202978
0.0202977
0.0202977
0.0202976
0.0202976
0.0202976
0.0202976
0.0158295
0.0158295
0.0158295
0.0158296
0.0158296
0.0158297
0.0158297
0.0158298
0.0158298
0.0158299
0.0158299
0.01583
0.01583
0.01583
0.01583
0.01583
0.01583
0.01583
0.01583
0.0158299
0.0158299
0.0158298
0.0158298
0.0158297
0.0158297
0.0158296
0.0158296
0.0158295
0.0158295
0.0158295
0.0129787
0.0129787
0.0129787
0.0129787
0.0129787
0.0129788
0.0129788
0.0129789
0.0129789
0.012979
0.012979
0.0129791
0.0129791
0.0129791
0.0129791
0.0129791
0.0129791
0.0129791
0.0129791
0.012979
0.012979
0.0129789
0.0129789
0.0129788
0.0129788
0.0129787
0.0129787
0.0129787
0.0129787
0.0129787
0.0109993
0.0109993
0.0109993
0.0109993
0.0109993
0.0109994
0.0109994
0.0109995
0.0109995
0.0109995
0.0109996
0.0109996
0.0109996
0.0109997
0.0109997
0.0109997
0.0109997
0.0109996
0.0109996
0.0109996
0.0109995
0.0109995
0.0109995
0.0109994
0.0109994
0.0109993
0.0109993
0.0109993
0.0109993
0.0109993
0.00954413
0.00954413
0.00954415
0.00954417
0.0095442
0.00954423
0.00954426
0.0095443
0.00954434
0.00954438
0.00954441
0.00954444
0.00954446
0.00954448
0.00954449
0.00954449
0.00954448
0.00954446
0.00954444
0.00954441
0.00954438
0.00954434
0.0095443
0.00954426
0.00954423
0.0095442
0.00954417
0.00954415
0.00954413
0.00954413
0.00842913
0.00842914
0.00842915
0.00842917
0.00842919
0.00842922
0.00842925
0.00842929
0.00842932
0.00842935
0.00842938
0.0084294
0.00842942
0.00842944
0.00842945
0.00842944
0.00842944
0.00842942
0.0084294
0.00842938
0.00842935
0.00842932
0.00842929
0.00842925
0.00842922
0.00842919
0.00842917
0.00842915
0.00842914
0.00842913
0.00754743
0.00754743
0.00754744
0.00754746
0.00754748
0.00754751
0.00754753
0.00754756
0.00754759
0.00754762
0.00754764
0.00754766
0.00754768
0.00754769
0.0075477
0.0075477
0.00754769
0.00754768
0.00754766
0.00754764
0.00754762
0.00754759
0.00754756
0.00754753
0.0075475
0.00754748
0.00754746
0.00754744
0.00754743
0.00754743
0.00683271
0.00683271
0.00683272
0.00683273
0.00683275
0.00683277
0.00683279
0.00683282
0.00683284
0.00683287
0.00683289
0.00683291
0.00683292
0.00683293
0.00683294
0.00683294
0.00683293
0.00683292
0.00683291
0.00683289
0.00683287
0.00683284
0.00683282
0.00683279
0.00683277
0.00683275
0.00683273
0.00683272
0.00683271
0.00683271
0.00624162
0.00624162
0.00624163
0.00624164
0.00624165
0.00624167
0.00624169
0.00624171
0.00624173
0.00624175
0.00624177
0.00624179
0.0062418
0.00624181
0.00624181
0.00624181
0.00624181
0.0062418
0.00624179
0.00624177
0.00624175
0.00624173
0.00624171
0.00624169
0.00624167
0.00624165
0.00624164
0.00624163
0.00624162
0.00624162
0.00574463
0.00574463
0.00574464
0.00574465
0.00574466
0.00574468
0.00574469
0.00574471
0.00574473
0.00574475
0.00574476
0.00574478
0.00574479
0.00574479
0.0057448
0.0057448
0.00574479
0.00574479
0.00574478
0.00574476
0.00574475
0.00574473
0.00574471
0.00574469
0.00574468
0.00574466
0.00574465
0.00574464
0.00574463
0.00574463
0.00532093
0.00532093
0.00532094
0.00532094
0.00532095
0.00532097
0.00532098
0.005321
0.00532101
0.00532103
0.00532104
0.00532105
0.00532106
0.00532107
0.00532107
0.00532107
0.00532107
0.00532106
0.00532105
0.00532104
0.00532103
0.00532101
0.005321
0.00532098
0.00532097
0.00532095
0.00532094
0.00532094
0.00532093
0.00532093
0.00495541
0.00495541
0.00495542
0.00495543
0.00495543
0.00495545
0.00495546
0.00495547
0.00495548
0.0049555
0.00495551
0.00495552
0.00495552
0.00495553
0.00495553
0.00495553
0.00495553
0.00495552
0.00495552
0.00495551
0.0049555
0.00495548
0.00495547
0.00495546
0.00495544
0.00495543
0.00495542
0.00495542
0.00495541
0.00495541
0.00463687
0.00463687
0.00463687
0.00463688
0.00463688
0.00463689
0.0046369
0.00463691
0.00463692
0.00463693
0.00463694
0.00463695
0.00463696
0.00463696
0.00463696
0.00463696
0.00463696
0.00463696
0.00463695
0.00463694
0.00463693
0.00463692
0.00463691
0.0046369
0.00463689
0.00463688
0.00463687
0.00463687
0.00463687
0.00463687
0.00435678
0.00435678
0.00435678
0.00435679
0.00435679
0.0043568
0.00435681
0.00435682
0.00435683
0.00435683
0.00435684
0.00435685
0.00435685
0.00435686
0.00435686
0.00435686
0.00435686
0.00435685
0.00435685
0.00435684
0.00435683
0.00435683
0.00435682
0.00435681
0.0043568
0.00435679
0.00435679
0.00435678
0.00435678
0.00435678
0.00410858
0.00410858
0.00410858
0.00410859
0.00410859
0.0041086
0.0041086
0.00410861
0.00410862
0.00410863
0.00410863
0.00410864
0.00410864
0.00410865
0.00410865
0.00410865
0.00410865
0.00410864
0.00410864
0.00410863
0.00410863
0.00410862
0.00410861
0.0041086
0.0041086
0.00410859
0.00410859
0.00410858
0.00410858
0.00410858
0.00388712
0.00388712
0.00388712
0.00388712
0.00388713
0.00388713
0.00388714
0.00388714
0.00388715
0.00388716
0.00388716
0.00388717
0.00388717
0.00388717
0.00388717
0.00388717
0.00388717
0.00388717
0.00388717
0.00388716
0.00388716
0.00388715
0.00388714
0.00388714
0.00388713
0.00388713
0.00388712
0.00388712
0.00388712
0.00388712
0.00368829
0.00368829
0.00368829
0.00368829
0.0036883
0.0036883
0.0036883
0.00368831
0.00368831
0.00368832
0.00368832
0.00368833
0.00368833
0.00368833
0.00368833
0.00368833
0.00368833
0.00368833
0.00368833
0.00368832
0.00368832
0.00368831
0.00368831
0.0036883
0.0036883
0.0036883
0.00368829
0.00368829
0.00368829
0.00368829
0.00350879
0.00350879
0.00350879
0.00350879
0.0035088
0.0035088
0.0035088
0.00350881
0.00350881
0.00350882
0.00350882
0.00350882
0.00350882
0.00350883
0.00350883
0.00350883
0.00350883
0.00350882
0.00350882
0.00350882
0.00350882
0.00350881
0.00350881
0.0035088
0.0035088
0.0035088
0.00350879
0.00350879
0.00350879
0.00350879
0.00334593
0.00334593
0.00334593
0.00334593
0.00334594
0.00334594
0.00334594
0.00334595
0.00334595
0.00334595
0.00334595
0.00334596
0.00334596
0.00334596
0.00334596
0.00334596
0.00334596
0.00334596
0.00334596
0.00334595
0.00334595
0.00334595
0.00334595
0.00334594
0.00334594
0.00334594
0.00334593
0.00334593
0.00334593
0.00334593
0.0031975
0.0031975
0.0031975
0.0031975
0.0031975
0.00319751
0.00319751
0.00319751
0.00319752
0.00319752
0.00319752
0.00319752
0.00319752
0.00319752
0.00319753
0.00319753
0.00319752
0.00319752
0.00319752
0.00319752
0.00319752
0.00319751
0.00319751
0.00319751
0.00319751
0.0031975
0.0031975
0.0031975
0.0031975
0.0031975
0.00306167
0.00306167
0.00306167
0.00306167
0.00306167
0.00306167
0.00306167
0.00306168
0.00306168
0.00306168
0.00306168
0.00306168
0.00306169
0.00306169
0.00306169
0.00306169
0.00306169
0.00306169
0.00306168
0.00306168
0.00306168
0.00306168
0.00306168
0.00306167
0.00306167
0.00306167
0.00306167
0.00306167
0.00306167
0.00306167
0.00293691
0.00293691
0.00293691
0.00293692
0.00293692
0.00293692
0.00293692
0.00293692
0.00293692
0.00293692
0.00293693
0.00293693
0.00293693
0.00293693
0.00293693
0.00293693
0.00293693
0.00293693
0.00293693
0.00293693
0.00293692
0.00293692
0.00293692
0.00293692
0.00293692
0.00293692
0.00293691
0.00293691
0.00293691
0.00293691
0.002822
0.002822
0.002822
0.002822
0.002822
0.00282201
0.00282201
0.00282201
0.00282201
0.00282201
0.00282201
0.00282201
0.00282201
0.00282201
0.00282201
0.00282201
0.00282201
0.00282201
0.00282201
0.00282201
0.00282201
0.00282201
0.00282201
0.00282201
0.002822
0.002822
0.002822
0.002822
0.002822
0.002822
0.00271601
0.00271601
0.00271601
0.00271601
0.00271601
0.00271601
0.00271601
0.00271602
0.00271602
0.00271602
0.00271602
0.00271602
0.00271602
0.00271602
0.00271602
0.00271602
0.00271602
0.00271602
0.00271602
0.00271602
0.00271602
0.00271602
0.00271602
0.00271601
0.00271601
0.00271601
0.00271601
0.00271601
0.00271601
0.00271601
0.00261858
0.00261858
0.00261858
0.00261858
0.00261858
0.00261858
0.00261859
0.00261859
0.00261859
0.00261859
0.00261859
0.00261859
0.00261859
0.00261859
0.00261859
0.00261859
0.00261859
0.00261859
0.00261859
0.00261859
0.00261859
0.00261859
0.00261859
0.00261859
0.00261858
0.00261858
0.00261858
0.00261858
0.00261858
0.00261858
0.00253109
0.00253109
0.00253109
0.00253109
0.00253109
0.00253109
0.00253109
0.0025311
0.0025311
0.0025311
0.0025311
0.0025311
0.0025311
0.0025311
0.0025311
0.0025311
0.0025311
0.0025311
0.0025311
0.0025311
0.0025311
0.0025311
0.0025311
0.00253109
0.00253109
0.00253109
0.00253109
0.00253109
0.00253109
0.00253109
0.00246257
0.00246257
0.00246257
0.00246257
0.00246257
0.00246257
0.00246257
0.00246257
0.00246257
0.00246257
0.00246257
0.00246257
0.00246257
0.00246257
0.00246257
0.00246257
0.00246257
0.00246257
0.00246257
0.00246257
0.00246257
0.00246257
0.00246257
0.00246257
0.00246257
0.00246257
0.00246257
0.00246257
0.00246257
0.00246257
0.0963947
0.0963964
0.0963965
0.0963964
0.0963961
0.0963958
0.0963954
0.0963949
0.0963945
0.0963941
0.0963937
0.0963933
0.096393
0.0963929
0.0963928
0.0963928
0.0963929
0.0963931
0.0963933
0.0963937
0.0963941
0.0963945
0.0963949
0.0963954
0.0963958
0.0963961
0.0963964
0.0963966
0.0963964
0.0963948
0.046848
0.0468478
0.0468479
0.0468481
0.0468483
0.0468486
0.0468488
0.0468491
0.0468494
0.0468497
0.04685
0.0468502
0.0468504
0.0468505
0.0468506
0.0468506
0.0468505
0.0468504
0.0468502
0.04685
0.0468497
0.0468494
0.0468491
0.0468488
0.0468486
0.0468483
0.0468481
0.0468479
0.0468478
0.046848
0.0283956
0.0283955
0.0283955
0.0283956
0.0283957
0.0283959
0.0283961
0.0283963
0.0283965
0.0283967
0.0283969
0.0283971
0.0283972
0.0283973
0.0283973
0.0283973
0.0283973
0.0283972
0.0283971
0.0283969
0.0283967
0.0283965
0.0283963
0.0283961
0.0283959
0.0283957
0.0283956
0.0283955
0.0283955
0.0283956
0.0202993
0.0202993
0.0202993
0.0202994
0.0202995
0.0202996
0.0202998
0.0202999
0.0203001
0.0203003
0.0203004
0.0203005
0.0203006
0.0203007
0.0203007
0.0203007
0.0203007
0.0203006
0.0203005
0.0203004
0.0203003
0.0203001
0.0202999
0.0202998
0.0202996
0.0202995
0.0202994
0.0202993
0.0202993
0.0202993
0.0158166
0.0158166
0.0158167
0.0158167
0.0158168
0.0158169
0.0158171
0.0158172
0.0158173
0.0158175
0.0158176
0.0158177
0.0158178
0.0158178
0.0158179
0.0158178
0.0158178
0.0158178
0.0158177
0.0158176
0.0158175
0.0158173
0.0158172
0.0158171
0.0158169
0.0158168
0.0158167
0.0158167
0.0158166
0.0158166
0.0129656
0.0129656
0.0129656
0.0129657
0.0129658
0.0129659
0.012966
0.0129661
0.0129662
0.0129663
0.0129664
0.0129665
0.0129666
0.0129666
0.0129666
0.0129666
0.0129666
0.0129666
0.0129665
0.0129664
0.0129663
0.0129662
0.0129661
0.012966
0.0129659
0.0129658
0.0129657
0.0129656
0.0129656
0.0129656
0.0109885
0.0109885
0.0109886
0.0109886
0.0109887
0.0109888
0.0109889
0.010989
0.0109891
0.0109892
0.0109893
0.0109893
0.0109894
0.0109894
0.0109895
0.0109895
0.0109894
0.0109894
0.0109893
0.0109893
0.0109892
0.0109891
0.010989
0.0109889
0.0109888
0.0109887
0.0109886
0.0109886
0.0109885
0.0109885
0.0095357
0.00953571
0.00953574
0.00953578
0.00953584
0.00953592
0.009536
0.00953608
0.00953617
0.00953625
0.00953633
0.0095364
0.00953645
0.00953648
0.0095365
0.0095365
0.00953648
0.00953645
0.00953639
0.00953633
0.00953625
0.00953617
0.00953608
0.009536
0.00953592
0.00953584
0.00953578
0.00953573
0.00953571
0.0095357
0.00842254
0.00842255
0.00842257
0.00842261
0.00842267
0.00842273
0.0084228
0.00842287
0.00842295
0.00842302
0.00842309
0.00842314
0.00842319
0.00842322
0.00842324
0.00842324
0.00842322
0.00842319
0.00842314
0.00842309
0.00842302
0.00842295
0.00842287
0.0084228
0.00842273
0.00842266
0.00842261
0.00842257
0.00842254
0.00842254
0.00754222
0.00754223
0.00754225
0.00754228
0.00754233
0.00754238
0.00754245
0.00754251
0.00754257
0.00754264
0.00754269
0.00754274
0.00754278
0.00754281
0.00754282
0.00754282
0.00754281
0.00754278
0.00754274
0.00754269
0.00754264
0.00754257
0.00754251
0.00754244
0.00754238
0.00754233
0.00754228
0.00754225
0.00754223
0.00754222
0.00682853
0.00682854
0.00682855
0.00682858
0.00682862
0.00682867
0.00682872
0.00682878
0.00682883
0.00682889
0.00682894
0.00682898
0.00682901
0.00682904
0.00682905
0.00682905
0.00682904
0.00682901
0.00682898
0.00682894
0.00682889
0.00682883
0.00682878
0.00682872
0.00682867
0.00682862
0.00682858
0.00682855
0.00682853
0.00682853
0.00623821
0.00623822
0.00623823
0.00623826
0.00623829
0.00623833
0.00623838
0.00623843
0.00623847
0.00623852
0.00623856
0.0062386
0.00623863
0.00623865
0.00623866
0.00623866
0.00623865
0.00623863
0.0062386
0.00623856
0.00623852
0.00623847
0.00623843
0.00623838
0.00623833
0.00623829
0.00623826
0.00623823
0.00623822
0.00623821
0.00574181
0.00574181
0.00574182
0.00574185
0.00574187
0.00574191
0.00574195
0.00574199
0.00574203
0.00574207
0.0057421
0.00574213
0.00574216
0.00574218
0.00574219
0.00574219
0.00574218
0.00574216
0.00574213
0.0057421
0.00574207
0.00574203
0.00574199
0.00574195
0.00574191
0.00574187
0.00574184
0.00574182
0.00574181
0.00574181
0.00531854
0.00531855
0.00531856
0.00531857
0.0053186
0.00531863
0.00531866
0.00531869
0.00531873
0.00531876
0.00531879
0.00531882
0.00531884
0.00531885
0.00531886
0.00531886
0.00531885
0.00531884
0.00531882
0.00531879
0.00531876
0.00531873
0.00531869
0.00531866
0.00531863
0.0053186
0.00531857
0.00531855
0.00531854
0.00531854
0.00495336
0.00495336
0.00495337
0.00495338
0.0049534
0.00495343
0.00495345
0.00495348
0.00495351
0.00495354
0.00495357
0.00495359
0.00495361
0.00495362
0.00495362
0.00495362
0.00495362
0.00495361
0.00495359
0.00495357
0.00495354
0.00495351
0.00495348
0.00495345
0.00495343
0.0049534
0.00495338
0.00495337
0.00495336
0.00495336
0.00463506
0.00463506
0.00463507
0.00463508
0.0046351
0.00463512
0.00463514
0.00463516
0.00463519
0.00463521
0.00463523
0.00463525
0.00463527
0.00463528
0.00463528
0.00463528
0.00463528
0.00463527
0.00463525
0.00463523
0.00463521
0.00463519
0.00463516
0.00463514
0.00463512
0.00463509
0.00463508
0.00463507
0.00463506
0.00463506
0.00435516
0.00435516
0.00435516
0.00435517
0.00435519
0.0043552
0.00435522
0.00435524
0.00435526
0.00435528
0.0043553
0.00435532
0.00435533
0.00435534
0.00435534
0.00435534
0.00435534
0.00435533
0.00435532
0.0043553
0.00435528
0.00435526
0.00435524
0.00435522
0.0043552
0.00435519
0.00435517
0.00435516
0.00435516
0.00435516
0.0041071
0.0041071
0.0041071
0.00410711
0.00410712
0.00410714
0.00410715
0.00410717
0.00410719
0.0041072
0.00410722
0.00410723
0.00410724
0.00410725
0.00410725
0.00410725
0.00410725
0.00410724
0.00410723
0.00410722
0.0041072
0.00410719
0.00410717
0.00410715
0.00410714
0.00410712
0.00410711
0.0041071
0.0041071
0.0041071
0.00388574
0.00388574
0.00388574
0.00388575
0.00388576
0.00388577
0.00388578
0.00388579
0.00388581
0.00388582
0.00388584
0.00388585
0.00388585
0.00388586
0.00388586
0.00388586
0.00388586
0.00388585
0.00388585
0.00388583
0.00388582
0.00388581
0.00388579
0.00388578
0.00388577
0.00388576
0.00388575
0.00388574
0.00388574
0.00388574
0.00368698
0.00368698
0.00368698
0.00368699
0.00368699
0.003687
0.00368701
0.00368703
0.00368704
0.00368705
0.00368706
0.00368707
0.00368708
0.00368708
0.00368708
0.00368708
0.00368708
0.00368707
0.00368707
0.00368706
0.00368705
0.00368704
0.00368703
0.00368701
0.003687
0.00368699
0.00368699
0.00368698
0.00368698
0.00368698
0.00350753
0.00350753
0.00350753
0.00350753
0.00350754
0.00350755
0.00350756
0.00350757
0.00350758
0.00350759
0.00350759
0.0035076
0.00350761
0.00350761
0.00350761
0.00350761
0.00350761
0.00350761
0.0035076
0.00350759
0.00350759
0.00350758
0.00350757
0.00350756
0.00350755
0.00350754
0.00350753
0.00350753
0.00350753
0.00350753
0.00334471
0.00334471
0.00334471
0.00334471
0.00334471
0.00334472
0.00334473
0.00334474
0.00334474
0.00334475
0.00334476
0.00334476
0.00334477
0.00334477
0.00334477
0.00334477
0.00334477
0.00334477
0.00334476
0.00334476
0.00334475
0.00334474
0.00334474
0.00334473
0.00334472
0.00334471
0.00334471
0.00334471
0.00334471
0.00334471
0.00319631
0.00319631
0.00319631
0.00319631
0.00319631
0.00319632
0.00319633
0.00319633
0.00319634
0.00319635
0.00319635
0.00319636
0.00319636
0.00319636
0.00319636
0.00319636
0.00319636
0.00319636
0.00319636
0.00319635
0.00319634
0.00319634
0.00319633
0.00319633
0.00319632
0.00319631
0.00319631
0.00319631
0.00319631
0.00319631
0.00306053
0.00306053
0.00306053
0.00306053
0.00306054
0.00306054
0.00306055
0.00306055
0.00306056
0.00306056
0.00306057
0.00306057
0.00306057
0.00306058
0.00306058
0.00306058
0.00306058
0.00306057
0.00306057
0.00306057
0.00306056
0.00306056
0.00306055
0.00306055
0.00306054
0.00306054
0.00306053
0.00306053
0.00306053
0.00306053
0.00293592
0.00293592
0.00293592
0.00293592
0.00293592
0.00293593
0.00293593
0.00293594
0.00293594
0.00293594
0.00293595
0.00293595
0.00293595
0.00293595
0.00293596
0.00293596
0.00293595
0.00293595
0.00293595
0.00293595
0.00293594
0.00293594
0.00293594
0.00293593
0.00293593
0.00293592
0.00293592
0.00293592
0.00293592
0.00293592
0.00282138
0.00282138
0.00282138
0.00282138
0.00282138
0.00282139
0.00282139
0.00282139
0.00282139
0.0028214
0.0028214
0.0028214
0.00282141
0.00282141
0.00282141
0.00282141
0.00282141
0.0028214
0.0028214
0.0028214
0.0028214
0.00282139
0.00282139
0.00282139
0.00282138
0.00282138
0.00282138
0.00282138
0.00282138
0.00282138
0.00271637
0.00271637
0.00271637
0.00271637
0.00271637
0.00271637
0.00271637
0.00271638
0.00271638
0.00271638
0.00271638
0.00271638
0.00271639
0.00271639
0.00271639
0.00271639
0.00271639
0.00271639
0.00271638
0.00271638
0.00271638
0.00271638
0.00271638
0.00271637
0.00271637
0.00271637
0.00271637
0.00271637
0.00271637
0.00271637
0.0026215
0.0026215
0.0026215
0.0026215
0.0026215
0.0026215
0.0026215
0.00262151
0.00262151
0.00262151
0.00262151
0.00262151
0.00262151
0.00262151
0.00262151
0.00262151
0.00262151
0.00262151
0.00262151
0.00262151
0.00262151
0.00262151
0.00262151
0.0026215
0.0026215
0.0026215
0.0026215
0.0026215
0.0026215
0.0026215
0.00254047
0.00254046
0.00254046
0.00254046
0.00254046
0.00254047
0.00254047
0.00254047
0.00254047
0.00254047
0.00254047
0.00254047
0.00254047
0.00254047
0.00254047
0.00254047
0.00254047
0.00254047
0.00254047
0.00254047
0.00254047
0.00254047
0.00254047
0.00254047
0.00254047
0.00254046
0.00254046
0.00254046
0.00254046
0.00254047
0.00248536
0.00248536
0.00248536
0.00248536
0.00248536
0.00248536
0.00248536
0.00248536
0.00248536
0.00248536
0.00248536
0.00248536
0.00248536
0.00248536
0.00248536
0.00248536
0.00248536
0.00248536
0.00248536
0.00248536
0.00248536
0.00248536
0.00248536
0.00248536
0.00248536
0.00248536
0.00248536
0.00248536
0.00248536
0.00248536
0.0825737
0.0825748
0.0825749
0.0825745
0.0825738
0.082573
0.082572
0.082571
0.08257
0.082569
0.0825681
0.0825672
0.0825666
0.0825661
0.0825659
0.0825659
0.0825661
0.0825666
0.0825672
0.082568
0.082569
0.08257
0.082571
0.082572
0.082573
0.0825738
0.0825745
0.0825749
0.0825748
0.0825738
0.0460598
0.0460591
0.0460592
0.0460595
0.0460599
0.0460604
0.046061
0.0460615
0.0460621
0.0460627
0.0460632
0.0460637
0.0460641
0.0460643
0.0460644
0.0460644
0.0460643
0.0460641
0.0460637
0.0460632
0.0460627
0.0460621
0.0460615
0.046061
0.0460604
0.0460599
0.0460595
0.0460592
0.0460591
0.0460598
0.0284092
0.028409
0.028409
0.0284092
0.0284095
0.0284098
0.0284102
0.0284106
0.028411
0.0284114
0.0284118
0.0284121
0.0284124
0.0284126
0.0284127
0.0284127
0.0284126
0.0284124
0.0284121
0.0284118
0.0284114
0.028411
0.0284106
0.0284102
0.0284098
0.0284095
0.0284092
0.028409
0.028409
0.0284092
0.020308
0.020308
0.020308
0.0203082
0.0203084
0.0203087
0.020309
0.0203093
0.0203096
0.0203099
0.0203101
0.0203104
0.0203106
0.0203107
0.0203108
0.0203108
0.0203107
0.0203106
0.0203104
0.0203101
0.0203099
0.0203096
0.0203093
0.020309
0.0203087
0.0203084
0.0203082
0.020308
0.020308
0.020308
0.01581
0.01581
0.0158101
0.0158102
0.0158104
0.0158106
0.0158108
0.0158111
0.0158113
0.0158116
0.0158118
0.015812
0.0158121
0.0158123
0.0158123
0.0158123
0.0158122
0.0158121
0.015812
0.0158118
0.0158116
0.0158113
0.0158111
0.0158108
0.0158106
0.0158104
0.0158102
0.0158101
0.01581
0.01581
0.0129559
0.0129559
0.012956
0.0129561
0.0129562
0.0129564
0.0129566
0.0129568
0.012957
0.0129572
0.0129574
0.0129575
0.0129577
0.0129578
0.0129578
0.0129578
0.0129578
0.0129577
0.0129575
0.0129574
0.0129572
0.012957
0.0129568
0.0129566
0.0129564
0.0129562
0.0129561
0.012956
0.0129559
0.0129559
0.0109796
0.0109796
0.0109797
0.0109798
0.0109799
0.01098
0.0109802
0.0109804
0.0109805
0.0109807
0.0109809
0.010981
0.0109811
0.0109812
0.0109812
0.0109812
0.0109812
0.0109811
0.010981
0.0109809
0.0109807
0.0109805
0.0109804
0.0109802
0.01098
0.0109799
0.0109798
0.0109797
0.0109796
0.0109796
0.00952829
0.0095283
0.00952835
0.00952844
0.00952854
0.00952867
0.00952881
0.00952897
0.00952912
0.00952927
0.0095294
0.00952952
0.00952961
0.00952968
0.00952971
0.00952971
0.00952968
0.00952961
0.00952952
0.0095294
0.00952926
0.00952912
0.00952896
0.00952881
0.00952867
0.00952854
0.00952843
0.00952835
0.0095283
0.00952828
0.00841656
0.00841658
0.00841662
0.00841669
0.00841678
0.00841689
0.00841702
0.00841715
0.00841728
0.00841741
0.00841752
0.00841762
0.0084177
0.00841776
0.00841779
0.00841779
0.00841776
0.0084177
0.00841762
0.00841752
0.0084174
0.00841728
0.00841715
0.00841702
0.00841689
0.00841678
0.00841669
0.00841662
0.00841658
0.00841656
0.00753741
0.00753743
0.00753746
0.00753752
0.0075376
0.0075377
0.0075378
0.00753791
0.00753803
0.00753814
0.00753824
0.00753832
0.00753839
0.00753844
0.00753846
0.00753846
0.00753844
0.00753839
0.00753832
0.00753823
0.00753813
0.00753803
0.00753791
0.0075378
0.00753769
0.0075376
0.00753752
0.00753746
0.00753742
0.00753741
0.00682463
0.00682464
0.00682467
0.00682472
0.00682479
0.00682487
0.00682496
0.00682506
0.00682515
0.00682525
0.00682533
0.00682541
0.00682547
0.00682551
0.00682553
0.00682553
0.00682551
0.00682547
0.00682541
0.00682533
0.00682525
0.00682515
0.00682506
0.00682496
0.00682487
0.00682479
0.00682472
0.00682467
0.00682464
0.00682463
0.00623501
0.00623502
0.00623504
0.00623509
0.00623515
0.00623521
0.00623529
0.00623537
0.00623546
0.00623553
0.00623561
0.00623567
0.00623572
0.00623575
0.00623577
0.00623577
0.00623575
0.00623572
0.00623567
0.00623561
0.00623553
0.00623545
0.00623537
0.00623529
0.00623521
0.00623514
0.00623509
0.00623504
0.00623502
0.00623501
0.00573914
0.00573914
0.00573916
0.0057392
0.00573925
0.00573931
0.00573937
0.00573944
0.00573951
0.00573958
0.00573964
0.00573969
0.00573973
0.00573976
0.00573978
0.00573978
0.00573976
0.00573973
0.00573969
0.00573964
0.00573958
0.00573951
0.00573944
0.00573937
0.0057393
0.00573925
0.0057392
0.00573916
0.00573914
0.00573913
0.00531628
0.00531628
0.0053163
0.00531633
0.00531637
0.00531642
0.00531647
0.00531653
0.00531659
0.00531665
0.0053167
0.00531674
0.00531678
0.0053168
0.00531682
0.00531682
0.0053168
0.00531678
0.00531674
0.0053167
0.00531665
0.00531659
0.00531653
0.00531647
0.00531642
0.00531637
0.00531633
0.0053163
0.00531628
0.00531627
0.0049514
0.0049514
0.00495142
0.00495144
0.00495147
0.00495152
0.00495156
0.00495161
0.00495166
0.00495171
0.00495175
0.00495179
0.00495182
0.00495184
0.00495185
0.00495185
0.00495184
0.00495182
0.00495179
0.00495175
0.00495171
0.00495166
0.00495161
0.00495156
0.00495151
0.00495147
0.00495144
0.00495142
0.0049514
0.0049514
0.00463334
0.00463334
0.00463335
0.00463337
0.0046334
0.00463343
0.00463347
0.00463351
0.00463355
0.00463359
0.00463363
0.00463366
0.00463369
0.0046337
0.00463371
0.00463371
0.0046337
0.00463369
0.00463366
0.00463363
0.00463359
0.00463355
0.00463351
0.00463347
0.00463343
0.0046334
0.00463337
0.00463335
0.00463334
0.00463334
0.00435362
0.00435362
0.00435363
0.00435364
0.00435366
0.00435369
0.00435373
0.00435376
0.00435379
0.00435383
0.00435386
0.00435388
0.0043539
0.00435392
0.00435393
0.00435393
0.00435392
0.0043539
0.00435388
0.00435386
0.00435383
0.00435379
0.00435376
0.00435372
0.00435369
0.00435366
0.00435364
0.00435363
0.00435362
0.00435362
0.0041057
0.0041057
0.0041057
0.00410571
0.00410573
0.00410576
0.00410578
0.00410581
0.00410584
0.00410587
0.00410589
0.00410591
0.00410593
0.00410594
0.00410595
0.00410595
0.00410594
0.00410593
0.00410591
0.00410589
0.00410587
0.00410584
0.00410581
0.00410578
0.00410575
0.00410573
0.00410571
0.0041057
0.0041057
0.0041057
0.00388444
0.00388444
0.00388444
0.00388445
0.00388447
0.00388448
0.00388451
0.00388453
0.00388455
0.00388458
0.0038846
0.00388462
0.00388463
0.00388464
0.00388465
0.00388464
0.00388464
0.00388463
0.00388462
0.0038846
0.00388458
0.00388455
0.00388453
0.00388451
0.00388448
0.00388446
0.00388445
0.00388444
0.00388444
0.00388444
0.00368576
0.00368576
0.00368576
0.00368577
0.00368578
0.0036858
0.00368581
0.00368583
0.00368585
0.00368587
0.00368589
0.00368591
0.00368592
0.00368592
0.00368593
0.00368593
0.00368592
0.00368592
0.0036859
0.00368589
0.00368587
0.00368585
0.00368583
0.00368581
0.0036858
0.00368578
0.00368577
0.00368576
0.00368576
0.00368576
0.00350638
0.00350637
0.00350638
0.00350638
0.00350639
0.0035064
0.00350642
0.00350643
0.00350645
0.00350647
0.00350648
0.00350649
0.0035065
0.00350651
0.00350651
0.00350651
0.00350651
0.0035065
0.00350649
0.00350648
0.00350647
0.00350645
0.00350643
0.00350642
0.0035064
0.00350639
0.00350638
0.00350637
0.00350637
0.00350637
0.00334361
0.00334361
0.00334361
0.00334362
0.00334362
0.00334363
0.00334365
0.00334366
0.00334367
0.00334369
0.0033437
0.00334371
0.00334372
0.00334372
0.00334372
0.00334372
0.00334372
0.00334372
0.00334371
0.0033437
0.00334369
0.00334367
0.00334366
0.00334365
0.00334363
0.00334362
0.00334361
0.00334361
0.00334361
0.00334361
0.00319529
0.00319529
0.00319529
0.00319529
0.0031953
0.00319531
0.00319532
0.00319533
0.00319534
0.00319535
0.00319536
0.00319537
0.00319538
0.00319538
0.00319538
0.00319538
0.00319538
0.00319538
0.00319537
0.00319536
0.00319535
0.00319534
0.00319533
0.00319532
0.00319531
0.0031953
0.00319529
0.00319529
0.00319529
0.00319529
0.00305965
0.00305965
0.00305965
0.00305965
0.00305965
0.00305966
0.00305967
0.00305968
0.00305969
0.0030597
0.0030597
0.00305971
0.00305972
0.00305972
0.00305972
0.00305972
0.00305972
0.00305972
0.00305971
0.0030597
0.0030597
0.00305969
0.00305968
0.00305967
0.00305966
0.00305965
0.00305965
0.00305964
0.00305964
0.00305965
0.0029353
0.0029353
0.0029353
0.0029353
0.00293531
0.00293531
0.00293532
0.00293533
0.00293533
0.00293534
0.00293535
0.00293535
0.00293536
0.00293536
0.00293536
0.00293536
0.00293536
0.00293536
0.00293535
0.00293535
0.00293534
0.00293533
0.00293533
0.00293532
0.00293531
0.00293531
0.0029353
0.0029353
0.0029353
0.0029353
0.00282135
0.00282135
0.00282135
0.00282135
0.00282136
0.00282136
0.00282137
0.00282137
0.00282138
0.00282139
0.00282139
0.00282139
0.0028214
0.0028214
0.0028214
0.0028214
0.0028214
0.0028214
0.00282139
0.00282139
0.00282139
0.00282138
0.00282137
0.00282137
0.00282136
0.00282136
0.00282135
0.00282135
0.00282135
0.00282135
0.00271768
0.00271768
0.00271768
0.00271768
0.00271769
0.00271769
0.0027177
0.0027177
0.0027177
0.00271771
0.00271771
0.00271772
0.00271772
0.00271772
0.00271772
0.00271772
0.00271772
0.00271772
0.00271772
0.00271771
0.00271771
0.0027177
0.0027177
0.0027177
0.00271769
0.00271769
0.00271768
0.00271768
0.00271768
0.00271768
0.00262578
0.00262578
0.00262578
0.00262578
0.00262578
0.00262578
0.00262579
0.00262579
0.00262579
0.00262579
0.0026258
0.0026258
0.0026258
0.0026258
0.0026258
0.0026258
0.0026258
0.0026258
0.0026258
0.0026258
0.00262579
0.00262579
0.00262579
0.00262579
0.00262578
0.00262578
0.00262578
0.00262578
0.00262578
0.00262578
0.00255061
0.0025506
0.0025506
0.0025506
0.0025506
0.00255061
0.00255061
0.00255061
0.00255061
0.00255061
0.00255061
0.00255061
0.00255061
0.00255061
0.00255062
0.00255062
0.00255061
0.00255061
0.00255061
0.00255061
0.00255061
0.00255061
0.00255061
0.00255061
0.00255061
0.0025506
0.0025506
0.0025506
0.0025506
0.0025506
0.00250382
0.00250382
0.00250382
0.00250382
0.00250382
0.00250382
0.00250382
0.00250382
0.00250382
0.00250382
0.00250382
0.00250382
0.00250382
0.00250382
0.00250382
0.00250382
0.00250382
0.00250382
0.00250382
0.00250382
0.00250382
0.00250382
0.00250382
0.00250382
0.00250382
0.00250382
0.00250382
0.00250382
0.00250382
0.00250382
0.0726697
0.0726698
0.0726696
0.0726689
0.0726677
0.0726662
0.0726645
0.0726627
0.0726608
0.0726591
0.0726574
0.0726559
0.0726548
0.072654
0.0726536
0.0726536
0.072654
0.0726548
0.0726559
0.0726574
0.072659
0.0726608
0.0726627
0.0726645
0.0726662
0.0726677
0.0726689
0.0726697
0.0726698
0.0726697
0.0449673
0.0449666
0.0449667
0.0449673
0.044968
0.0449688
0.0449697
0.0449707
0.0449717