/*--------------------------------*- C++ -*----------------------------------*\
| =========                 |                                                 |
| \\      /  F ield         | OpenFOAM: The Open Source CFD Toolbox           |
|  \\    /   O peration     | Version:  2506                                  |
|   \\  /    A nd           | Website:  www.openfoam.com                      |
|    \\/     M anipulation  |                                                 |
\*---------------------------------------------------------------------------*/
FoamFile
{
    version     2.0;
    format      ascii;
    arch        "LSB;label=32;scalar=64";
    class       volScalarField;
    location    "70";
    object      p;
}
// * * * * * * * * * * * * * * * * * * * * * * * * * * * * * * * * * * * * * //

dimensions      [0 2 -2 0 0 0 0];

internalField   nonuniform List<scalar> 
144676
(
-0.124724
-0.12444
-0.124008
-0.123403
-0.122648
-0.121768
-0.1208
-0.119783
-0.118762
-0.117781
-0.116883
-0.116109
-0.115495
-0.115068
-0.11485
-0.11485
-0.115069
-0.115495
-0.116108
-0.116882
-0.11778
-0.118761
-0.119783
-0.120799
-0.121767
-0.122647
-0.123402
-0.124006
-0.124439
-0.124723
-0.10857
-0.108122
-0.107673
-0.107066
-0.106311
-0.105433
-0.104466
-0.103452
-0.102433
-0.101454
-0.100558
-0.0997856
-0.0991727
-0.0987474
-0.0985298
-0.0985298
-0.0987475
-0.0991724
-0.099785
-0.100557
-0.101453
-0.102432
-0.103451
-0.104466
-0.105432
-0.10631
-0.107065
-0.107672
-0.108121
-0.108569
-0.070896
-0.0706928
-0.070286
-0.0696966
-0.0689534
-0.068086
-0.0671301
-0.0661262
-0.0651175
-0.0641482
-0.0632615
-0.0624972
-0.0618906
-0.0614698
-0.0612545
-0.0612544
-0.0614696
-0.0618901
-0.0624964
-0.0632605
-0.0641473
-0.0651166
-0.0661253
-0.0671292
-0.068085
-0.0689525
-0.0696957
-0.0702849
-0.0706916
-0.0708948
-0.0434938
-0.0431787
-0.0427645
-0.0421829
-0.0414527
-0.0406013
-0.0396633
-0.0386782
-0.0376883
-0.0367371
-0.035867
-0.0351171
-0.034522
-0.0341092
-0.0338978
-0.0338976
-0.0341086
-0.0345211
-0.0351161
-0.0358659
-0.0367361
-0.0376873
-0.0386771
-0.0396622
-0.0406003
-0.0414517
-0.042182
-0.0427635
-0.0431776
-0.0434928
-0.0207047
-0.0204291
-0.0200332
-0.0194703
-0.0187614
-0.0179342
-0.0170225
-0.0160648
-0.0151024
-0.0141777
-0.0133319
-0.0126032
-0.0120249
-0.0116237
-0.0114182
-0.0114179
-0.0116227
-0.0120235
-0.0126018
-0.0133307
-0.0141766
-0.0151013
-0.0160635
-0.0170212
-0.017933
-0.0187604
-0.0194693
-0.0200323
-0.0204282
-0.0207037
-0.00186439
-0.00160818
-0.00122795
-0.000686268
-3.75492e-06
0.000792843
0.00167079
0.002593
0.00351963
0.00440994
0.00522419
0.00592559
0.0064821
0.00686817
0.00706607
0.00706662
0.0068696
0.00648392
0.00592734
0.00522562
0.00441112
0.00352082
0.00259437
0.00167228
0.000794285
-2.47034e-06
-0.000685136
-0.0012269
-0.00160712
-0.00186328
0.0139644
0.0141984
0.0145593
0.0150753
0.0157261
0.0164859
0.0173232
0.0182027
0.0190864
0.0199353
0.0207116
0.0213802
0.0219106
0.0222786
0.0224674
0.0224681
0.0222804
0.0219129
0.0213823
0.0207133
0.0199367
0.0190878
0.0182043
0.0173249
0.0164875
0.0157275
0.0150765
0.0145605
0.0141998
0.0139659
0.0273914
0.0276054
0.0279454
0.0284327
0.0290477
0.0297656
0.0305568
0.0313876
0.0322222
0.033024
0.0337572
0.0343885
0.0348893
0.0352368
0.035415
0.0354158
0.0352387
0.0348918
0.0343909
0.0337592
0.0330259
0.0322241
0.0313896
0.0305587
0.0297674
0.0290492
0.0284342
0.0279472
0.0276076
0.0273938
0.0389
0.039095
0.0394126
0.0398687
0.0404445
0.0411167
0.0418574
0.0426351
0.0434163
0.0441667
0.0448527
0.0454433
0.0459117
0.0462367
0.0464034
0.0464041
0.0462385
0.045914
0.0454456
0.0448548
0.0441688
0.0434186
0.0426375
0.0418597
0.0411188
0.0404465
0.0398708
0.0394153
0.0390983
0.0389036
0.048862
0.0490391
0.0493332
0.0497564
0.0502908
0.0509148
0.0516022
0.0523238
0.0530486
0.0537446
0.0543807
0.0549282
0.0553623
0.0556635
0.0558179
0.0558185
0.055665
0.0553643
0.0549301
0.0543826
0.0537468
0.0530512
0.0523267
0.0516051
0.0509176
0.0502937
0.0497596
0.0493372
0.0490438
0.0488671
0.0575766
0.0577366
0.0580068
0.0583961
0.0588881
0.0594624
0.060095
0.060759
0.0614257
0.0620657
0.0626504
0.0631535
0.0635523
0.0638289
0.0639706
0.063971
0.0638299
0.0635536
0.0631548
0.0626519
0.0620677
0.0614284
0.0607622
0.0600985
0.0594661
0.0588921
0.0584008
0.0580124
0.057743
0.0575834
0.0652908
0.0654345
0.0656808
0.0660361
0.0664851
0.0670095
0.0675869
0.0681929
0.0688011
0.0693847
0.0699177
0.0703762
0.0707395
0.0709913
0.0711202
0.0711204
0.0709918
0.0707401
0.0703769
0.0699189
0.0693866
0.0688038
0.0681964
0.0675911
0.0670142
0.0664906
0.0660424
0.0656881
0.0654427
0.0652995
0.0722141
0.0723423
0.072565
0.0728866
0.0732932
0.0737681
0.0742911
0.0748397
0.0753902
0.0759182
0.0764002
0.0768146
0.077143
0.0773704
0.0774867
0.0774868
0.0773705
0.0771431
0.076815
0.0764011
0.0759199
0.075393
0.0748437
0.0742961
0.0737741
0.0733003
0.0728947
0.072574
0.0723521
0.0722246
0.0785282
0.0786417
0.0788414
0.0791303
0.0794957
0.0799225
0.0803925
0.0808854
0.0813798
0.0818538
0.0822865
0.0826583
0.0829528
0.0831567
0.0832611
0.0832612
0.0831569
0.082953
0.0826588
0.0822875
0.0818559
0.0813832
0.0808902
0.0803987
0.0799301
0.0795046
0.0791402
0.0788523
0.0786534
0.0785407
0.0843951
0.0844945
0.0846723
0.0849299
0.085256
0.0856367
0.0860559
0.0864954
0.0869361
0.0873586
0.0877441
0.0880754
0.0883378
0.0885196
0.0886126
0.0886127
0.0885198
0.0883383
0.0880763
0.0877457
0.0873614
0.0869404
0.0865013
0.0860633
0.0856458
0.0852665
0.0849418
0.0846853
0.0845083
0.0844095
0.0899625
0.0900486
0.0902059
0.0904341
0.0907229
0.09106
0.0914312
0.0918203
0.0922104
0.0925844
0.0929256
0.0932188
0.0934511
0.093612
0.0936943
0.0936943
0.0936122
0.0934517
0.0932201
0.0929278
0.0925879
0.0922156
0.0918272
0.09144
0.0910706
0.0907351
0.0904479
0.0902212
0.0900647
0.0899789
0.0953696
0.0954434
0.0955814
0.0957821
0.0960361
0.0963326
0.0966588
0.097001
0.097344
0.0976728
0.0979728
0.0982307
0.0984349
0.0985764
0.0986488
0.0986489
0.0985768
0.0984359
0.0982325
0.0979758
0.0976773
0.0973503
0.0970093
0.0966693
0.0963449
0.0960502
0.0957979
0.0955988
0.0954616
0.0953882
0.100752
0.100814
0.100934
0.10111
0.101331
0.10159
0.101875
0.102174
0.102473
0.102761
0.103023
0.103248
0.103427
0.10355
0.103614
0.103614
0.103551
0.103428
0.103251
0.103027
0.102767
0.102481
0.102184
0.101887
0.101604
0.101347
0.101127
0.100953
0.100834
0.100773
0.106247
0.106298
0.106402
0.106554
0.106746
0.10697
0.107217
0.107477
0.107737
0.107986
0.108214
0.108409
0.108565
0.108673
0.108728
0.108728
0.108674
0.108568
0.108414
0.10822
0.107994
0.107747
0.107489
0.107232
0.106987
0.106764
0.106573
0.106423
0.10632
0.10627
0.112002
0.112043
0.112131
0.112262
0.112427
0.11262
0.112833
0.113057
0.113281
0.113496
0.113693
0.113862
0.113996
0.114089
0.114137
0.114138
0.114092
0.114
0.113867
0.1137
0.113506
0.113293
0.113071
0.11285
0.112639
0.112447
0.112283
0.112154
0.112066
0.112026
0.118185
0.118214
0.118289
0.1184
0.118541
0.118706
0.118889
0.119081
0.119273
0.119457
0.119626
0.119771
0.119887
0.119967
0.120009
0.12001
0.11997
0.119892
0.119778
0.119635
0.119469
0.119287
0.119097
0.118908
0.118727
0.118563
0.118423
0.118313
0.11824
0.11821
0.124997
0.125016
0.125078
0.125172
0.125291
0.125432
0.125587
0.12575
0.125914
0.126071
0.126215
0.126339
0.126438
0.126507
0.126543
0.126544
0.126511
0.126444
0.126348
0.126226
0.126084
0.12593
0.125769
0.125608
0.125454
0.125315
0.125196
0.125104
0.125042
0.125025
0.132703
0.132709
0.13276
0.132838
0.132938
0.133057
0.133188
0.133326
0.133464
0.133598
0.13372
0.133826
0.13391
0.133969
0.134001
0.134002
0.133974
0.133918
0.133836
0.133733
0.133613
0.133482
0.133346
0.13321
0.13308
0.132963
0.132863
0.132787
0.132737
0.132733
0.141663
0.141652
0.141693
0.141757
0.141841
0.14194
0.14205
0.142166
0.142284
0.142396
0.1425
0.14259
0.142662
0.142713
0.14274
0.142741
0.142718
0.142671
0.142602
0.142515
0.142414
0.142303
0.142189
0.142074
0.141965
0.141867
0.141784
0.141721
0.141682
0.141694
0.152391
0.152361
0.152392
0.152444
0.152513
0.152596
0.152688
0.152786
0.152885
0.152981
0.153069
0.153145
0.153207
0.15325
0.153273
0.153275
0.153256
0.153216
0.153157
0.153084
0.152999
0.152906
0.15281
0.152714
0.152623
0.152542
0.152473
0.152423
0.152393
0.152424
0.165646
0.165591
0.165614
0.165655
0.165712
0.165781
0.165859
0.165942
0.166025
0.166106
0.166181
0.166246
0.166299
0.166336
0.166356
0.166358
0.166342
0.166308
0.166258
0.166196
0.166125
0.166047
0.165966
0.165885
0.16581
0.165742
0.165686
0.165646
0.165626
0.16568
0.182518
0.182425
0.182438
0.182471
0.182517
0.182575
0.182641
0.182711
0.182783
0.182852
0.182916
0.182972
0.183018
0.18305
0.183068
0.183069
0.183055
0.183026
0.182983
0.182931
0.18287
0.182804
0.182736
0.182668
0.182604
0.182548
0.182503
0.182472
0.18246
0.182554
0.204542
0.204459
0.204465
0.204489
0.204528
0.204577
0.204633
0.204694
0.204756
0.204816
0.204873
0.204922
0.204962
0.204991
0.205006
0.205007
0.204995
0.204969
0.204932
0.204886
0.204834
0.204777
0.204719
0.204661
0.204607
0.20456
0.204523
0.204499
0.204494
0.204579
0.23593
0.236047
0.236086
0.236112
0.236147
0.23619
0.23624
0.236294
0.236349
0.236404
0.236455
0.236499
0.236536
0.236561
0.236575
0.236577
0.236565
0.236542
0.236509
0.236468
0.236421
0.236371
0.236319
0.236268
0.236221
0.236179
0.236146
0.236121
0.236083
0.235967
0.279785
0.2792
0.279171
0.279172
0.279195
0.279231
0.279276
0.279326
0.279378
0.279429
0.279477
0.279519
0.279553
0.279577
0.279591
0.279592
0.279581
0.279559
0.279528
0.27949
0.279446
0.279399
0.279351
0.279304
0.279262
0.279228
0.279207
0.279207
0.279236
0.279822
-0.110089
-0.109817
-0.109396
-0.108777
-0.107996
-0.107083
-0.106075
-0.105016
-0.103952
-0.102928
-0.101991
-0.101183
-0.100541
-0.100096
-0.0998674
-0.0998675
-0.100096
-0.100541
-0.101183
-0.101991
-0.102928
-0.103951
-0.105016
-0.106075
-0.107082
-0.107995
-0.108776
-0.109395
-0.109815
-0.110088
-0.0918119
-0.0915349
-0.0911179
-0.0904952
-0.0897129
-0.0887995
-0.0877926
-0.0867345
-0.0856706
-0.0846477
-0.0837112
-0.0829036
-0.0822623
-0.0818173
-0.0815894
-0.0815895
-0.0818173
-0.0822621
-0.0829031
-0.0837105
-0.0846469
-0.0856699
-0.0867337
-0.0877918
-0.0887987
-0.0897121
-0.0904943
-0.0911168
-0.0915336
-0.0918106
-0.0590262
-0.058932
-0.058538
-0.0579348
-0.0571651
-0.0562624
-0.0552658
-0.054218
-0.0531644
-0.0521512
-0.0512238
-0.050424
-0.049789
-0.0493483
-0.0491227
-0.0491227
-0.0493481
-0.0497885
-0.0504233
-0.0512229
-0.0521503
-0.0531635
-0.0542171
-0.0552649
-0.0562616
-0.0571643
-0.0579341
-0.0585372
-0.058931
-0.0590252
-0.0360434
-0.0358133
-0.0354082
-0.0348094
-0.0340516
-0.0331651
-0.032187
-0.0311588
-0.0301249
-0.0291308
-0.0282208
-0.0274362
-0.0268132
-0.0263809
-0.0261595
-0.0261593
-0.0263803
-0.0268123
-0.0274351
-0.0282197
-0.0291297
-0.0301239
-0.0311578
-0.032186
-0.0331643
-0.0340509
-0.0348087
-0.0354075
-0.0358125
-0.0360426
-0.015333
-0.0151521
-0.0147665
-0.014188
-0.013453
-0.0125922
-0.0116421
-0.0106432
-0.00963875
-0.00867296
-0.00778903
-0.00702708
-0.00642219
-0.00600243
-0.00578733
-0.00578697
-0.00600145
-0.00642089
-0.00702573
-0.00778777
-0.0086718
-0.0096376
-0.010642
-0.011641
-0.0125912
-0.0134521
-0.0141872
-0.0147658
-0.0151514
-0.0153321
0.00203475
0.00222247
0.00259806
0.00315587
0.00386355
0.00469191
0.00560604
0.00656702
0.00753321
0.00846207
0.00931206
0.0100446
0.010626
0.0110295
0.0112364
0.0112369
0.0110309
0.0106278
0.0100463
0.00931351
0.00846333
0.00753446
0.00656836
0.00560744
0.00469327
0.00386477
0.00315691
0.00259901
0.00222344
0.00203576
0.0168802
0.0170591
0.0174181
0.0179496
0.0186239
0.0194132
0.020284
0.0211993
0.0221194
0.0230039
0.0238131
0.0245104
0.0250638
0.0254478
0.0256448
0.0256455
0.0254496
0.025066
0.0245125
0.0238149
0.0230054
0.0221209
0.0212009
0.0202856
0.0194147
0.0186253
0.0179509
0.0174194
0.0170606
0.0168817
0.0296075
0.0297783
0.0301185
0.0306205
0.0312572
0.032002
0.0328236
0.033687
0.0345549
0.035389
0.036152
0.0368093
0.0373308
0.0376928
0.0378785
0.0378792
0.0376946
0.0373332
0.0368115
0.036154
0.0353908
0.0345568
0.0336889
0.0328255
0.0320037
0.0312588
0.0306222
0.0301205
0.0297806
0.02961
0.0406054
0.040766
0.041085
0.0415547
0.0421501
0.0428466
0.0436147
0.0444217
0.0452327
0.046012
0.0467246
0.0473383
0.0478252
0.0481631
0.0483364
0.048337
0.0481648
0.0478274
0.0473405
0.0467266
0.046014
0.0452349
0.044424
0.0436171
0.0428489
0.0421525
0.0415573
0.041088
0.0407695
0.0406092
0.050182
0.0503314
0.0506278
0.0510633
0.0516153
0.0522608
0.0529725
0.0537201
0.0544712
0.0551927
0.0558521
0.0564199
0.0568704
0.0571829
0.0573431
0.0573436
0.0571843
0.0568723
0.0564219
0.0558541
0.0551948
0.0544737
0.053723
0.0529756
0.0522639
0.0516186
0.0510671
0.0506322
0.0503364
0.0501872
0.0585975
0.0587353
0.0590081
0.0594084
0.0599158
0.060509
0.061163
0.0618497
0.0625393
0.0632014
0.0638064
0.0643271
0.0647402
0.0650266
0.0651734
0.0651738
0.0650276
0.0647416
0.0643288
0.0638082
0.0632036
0.062542
0.061853
0.0611667
0.0605131
0.0599204
0.0594137
0.0590142
0.058742
0.0586044
0.0660734
0.0661995
0.0664484
0.0668134
0.0672759
0.0678167
0.0684126
0.0690381
0.069666
0.0702686
0.0708191
0.0712928
0.0716683
0.0719286
0.0720618
0.0720621
0.0719291
0.0716691
0.0712939
0.0708207
0.0702708
0.0696689
0.0690418
0.068417
0.0678218
0.0672819
0.0668204
0.0664562
0.0662079
0.0660822
0.0728021
0.0729166
0.0731418
0.0734718
0.0738901
0.0743791
0.0749179
0.0754832
0.0760505
0.0765946
0.0770915
0.0775189
0.0778575
0.0780921
0.0782122
0.0782124
0.0780925
0.077858
0.0775197
0.0770929
0.0765968
0.0760536
0.0754874
0.0749232
0.0743856
0.0738978
0.0734806
0.0731513
0.0729267
0.0728129
0.0789535
0.0790565
0.0792587
0.0795549
0.0799303
0.0803691
0.0808525
0.0813595
0.081868
0.0823556
0.0828007
0.0831834
0.0834866
0.0836967
0.0838042
0.0838043
0.083697
0.0834871
0.0831843
0.0828023
0.0823581
0.0818717
0.0813645
0.0808589
0.080377
0.0799396
0.0795654
0.0792702
0.0790687
0.0789662
0.0846806
0.0847726
0.0849528
0.0852168
0.0855513
0.0859421
0.0863725
0.0868238
0.0872763
0.0877101
0.088106
0.0884464
0.0887161
0.0889029
0.0889985
0.0889985
0.0889031
0.0887166
0.0884475
0.088108
0.0877132
0.0872807
0.0868297
0.08638
0.0859513
0.085562
0.0852291
0.0849665
0.0847869
0.0846952
0.0901243
0.0902059
0.0903656
0.0905992
0.0908951
0.0912406
0.091621
0.0920199
0.0924197
0.092803
0.0931528
0.0934536
0.0936918
0.0938568
0.0939412
0.0939412
0.093857
0.0936924
0.0934549
0.0931553
0.0928068
0.0924251
0.0920269
0.0916299
0.0912513
0.0909075
0.0906134
0.0903813
0.0902224
0.0901409
0.0954178
0.0954899
0.0956304
0.0958356
0.0960954
0.0963987
0.0967326
0.0970827
0.0974337
0.0977701
0.0980771
0.0983411
0.0985502
0.098695
0.0987691
0.0987692
0.0986954
0.0985512
0.0983431
0.0980804
0.0977749
0.0974402
0.0970912
0.0967431
0.0964111
0.0961095
0.0958515
0.0956478
0.0955083
0.0954365
0.10069
0.100754
0.100877
0.101055
0.101282
0.101546
0.101837
0.102143
0.102449
0.102742
0.10301
0.10324
0.103423
0.103549
0.103614
0.103614
0.10355
0.103425
0.103243
0.103014
0.102748
0.102457
0.102153
0.10185
0.101561
0.101298
0.101073
0.100896
0.100774
0.100711
0.106073
0.106128
0.106235
0.106389
0.106585
0.106814
0.107066
0.107331
0.107596
0.10785
0.108082
0.108282
0.108441
0.108551
0.108607
0.108607
0.108552
0.108444
0.108287
0.108089
0.107858
0.107606
0.107343
0.107081
0.106831
0.106603
0.106409
0.106255
0.10615
0.106095
0.111702
0.111751
0.111842
0.111975
0.112144
0.112341
0.112558
0.112786
0.113014
0.113233
0.113433
0.113605
0.113742
0.113837
0.113886
0.113886
0.113839
0.113746
0.113611
0.113441
0.113243
0.113026
0.1128
0.112575
0.11236
0.112164
0.111997
0.111865
0.111774
0.111726
0.117733
0.117775
0.117854
0.117967
0.118111
0.11828
0.118465
0.11866
0.118855
0.119042
0.119214
0.119362
0.119479
0.119561
0.119603
0.119604
0.119564
0.119484
0.119369
0.119223
0.119054
0.118869
0.118677
0.118484
0.1183
0.118133
0.11799
0.117878
0.1178
0.117758
0.124346
0.124384
0.124451
0.124547
0.124669
0.124812
0.12497
0.125135
0.125301
0.12546
0.125606
0.125732
0.125832
0.125903
0.125939
0.12594
0.125906
0.125839
0.125741
0.125618
0.125474
0.125317
0.125153
0.12499
0.124834
0.124692
0.124571
0.124476
0.12441
0.124373
0.131771
0.131805
0.131862
0.131943
0.132046
0.132166
0.132299
0.132438
0.132579
0.132714
0.132837
0.132945
0.13303
0.13309
0.133122
0.133123
0.133095
0.133038
0.132955
0.132851
0.13273
0.132597
0.132459
0.132321
0.132189
0.13207
0.131969
0.131889
0.131833
0.1318
0.140314
0.140344
0.140393
0.140461
0.140547
0.140647
0.140759
0.140877
0.140995
0.141109
0.141214
0.141305
0.141377
0.141429
0.141456
0.141458
0.141434
0.141386
0.141316
0.141228
0.141127
0.141015
0.140899
0.140783
0.140673
0.140573
0.140488
0.140422
0.140374
0.140345
0.150408
0.150434
0.150476
0.150532
0.150603
0.150687
0.150781
0.15088
0.15098
0.151076
0.151164
0.151242
0.151304
0.151348
0.151371
0.151373
0.151353
0.151313
0.151254
0.15118
0.151094
0.151001
0.150903
0.150806
0.150714
0.150631
0.150561
0.150507
0.150466
0.150441
0.162689
0.162708
0.162744
0.16279
0.16285
0.16292
0.162999
0.163082
0.163166
0.163248
0.163323
0.163389
0.163441
0.163479
0.163499
0.163501
0.163484
0.16345
0.1634
0.163338
0.163266
0.163188
0.163106
0.163025
0.162948
0.162879
0.162821
0.162776
0.162742
0.162724
0.178099
0.178095
0.178125
0.178163
0.178213
0.178272
0.178338
0.178409
0.178481
0.17855
0.178615
0.178671
0.178717
0.178749
0.178767
0.178768
0.178754
0.178725
0.178682
0.178629
0.178568
0.178502
0.178433
0.178365
0.178301
0.178243
0.178196
0.178159
0.17813
0.178135
0.197893
0.19783
0.197843
0.197872
0.197913
0.197963
0.19802
0.198081
0.198143
0.198203
0.19826
0.198309
0.198349
0.198378
0.198393
0.198394
0.198382
0.198356
0.198319
0.198273
0.198221
0.198164
0.198105
0.198047
0.197992
0.197945
0.197905
0.197878
0.197866
0.19793
0.223607
0.223749
0.223794
0.223825
0.223864
0.223909
0.223959
0.224014
0.22407
0.224124
0.224175
0.224219
0.224256
0.224281
0.224295
0.224296
0.224285
0.224262
0.224229
0.224188
0.224141
0.224091
0.224039
0.223987
0.223939
0.223896
0.22386
0.22383
0.223785
0.223644
0.260324
0.25979
0.259795
0.259807
0.259834
0.259873
0.259919
0.259969
0.260021
0.260072
0.26012
0.260162
0.260196
0.26022
0.260233
0.260234
0.260223
0.260202
0.260171
0.260133
0.260089
0.260042
0.259994
0.259947
0.259903
0.259867
0.259842
0.259831
0.259827
0.260361
-0.0671782
-0.0670569
-0.0666359
-0.0659782
-0.0651387
-0.0641521
-0.0630615
-0.0619136
-0.0607578
-0.0596453
-0.0586258
-0.0577461
-0.057047
-0.0565617
-0.0563133
-0.0563134
-0.0565619
-0.0570471
-0.057746
-0.0586256
-0.059645
-0.0607575
-0.0619132
-0.0630611
-0.0641516
-0.0651381
-0.0659773
-0.0666348
-0.0670556
-0.0671767
-0.062676
-0.0624346
-0.0619976
-0.0613329
-0.0604917
-0.0595049
-0.0584148
-0.0572673
-0.0561121
-0.055
-0.0539808
-0.0531011
-0.0524019
-0.0519164
-0.0516678
-0.0516679
-0.0519166
-0.0524019
-0.0531009
-0.0539804
-0.0549995
-0.0561116
-0.0572668
-0.0584143
-0.0595044
-0.0604911
-0.0613322
-0.0619966
-0.0624334
-0.0626748
-0.0404344
-0.0403159
-0.0398848
-0.0392378
-0.0384094
-0.0374349
-0.0363571
-0.0352222
-0.0340795
-0.0329794
-0.0319712
-0.0311011
-0.0304097
-0.0299295
-0.0296837
-0.0296837
-0.0299295
-0.0304094
-0.0311007
-0.0319706
-0.0329786
-0.0340787
-0.0352215
-0.0363565
-0.0374344
-0.0384089
-0.0392373
-0.0398842
-0.0403151
-0.0404335
-0.0237837
-0.0235354
-0.0230965
-0.0224532
-0.0216379
-0.020682
-0.019626
-0.0185144
-0.0173952
-0.0163179
-0.0153307
-0.0144788
-0.0138018
-0.0133317
-0.0130909
-0.0130908
-0.0133313
-0.0138012
-0.0144779
-0.0153297
-0.0163168
-0.0173942
-0.0185135
-0.0196254
-0.0206816
-0.0216375
-0.0224528
-0.0230961
-0.0235349
-0.023783
-0.00662389
-0.00642895
-0.00601189
-0.00539195
-0.00460298
-0.00367707
-0.00265367
-0.00157639
-0.000491922
0.000551917
0.00150826
0.00233339
0.00298895
0.00344412
0.00367736
0.00367761
0.00344485
0.00299002
0.00233466
0.0015096
0.000553198
-0.000490774
-0.0015754
-0.00265282
-0.0036763
-0.0046023
-0.00539138
-0.00601137
-0.00642836
-0.00662315
0.00826128
0.00847432
0.0088811
0.00947856
0.0102369
0.0111258
0.0121078
0.0131413
0.0141814
0.0151823
0.0160991
0.0168898
0.017518
0.0179542
0.0181778
0.0181782
0.0179554
0.0175196
0.0168916
0.0161007
0.0151837
0.0141827
0.0131424
0.012109
0.0111269
0.0102379
0.00947947
0.00888195
0.0084752
0.00826221
0.0214651
0.0216677
0.0220546
0.0226225
0.0233432
0.0241877
0.0251204
0.0261018
0.0270892
0.0280391
0.028909
0.0296591
0.0302548
0.0306685
0.0308806
0.0308812
0.03067
0.0302569
0.0296612
0.0289109
0.0280408
0.0270906
0.0261031
0.0251218
0.0241891
0.0233446
0.0226239
0.022056
0.0216691
0.0214666
0.0330351
0.0332291
0.0335947
0.0341298
0.0348083
0.035603
0.0364803
0.0374031
0.0383313
0.039224
0.0400412
0.0407457
0.0413051
0.0416935
0.0418928
0.0418934
0.0416953
0.0413075
0.0407481
0.0400434
0.0392259
0.038333
0.0374048
0.0364821
0.0356048
0.0348103
0.0341319
0.033597
0.0332315
0.0330376
0.0431967
0.0433787
0.0437203
0.0442194
0.0448521
0.0455929
0.0464105
0.0472701
0.0481345
0.0489655
0.0497259
0.0503813
0.0509016
0.0512628
0.051448
0.0514487
0.0512645
0.0509039
0.0503838
0.0497282
0.0489676
0.0481366
0.0472724
0.046413
0.0455957
0.0448552
0.0442227
0.0437238
0.0433823
0.0432004
0.0521488
0.0523176
0.0526337
0.0530952
0.05368
0.0543644
0.0551195
0.0559132
0.0567108
0.0574774
0.0581785
0.0587826
0.0592621
0.0595949
0.0597656
0.0597661
0.0595964
0.0592643
0.0587851
0.0581811
0.0574799
0.0567135
0.0559162
0.0551229
0.0543682
0.0536843
0.0530998
0.0526387
0.0523228
0.052154
0.0600855
0.0602405
0.0605303
0.0609532
0.0614891
0.0621161
0.0628076
0.063534
0.0642638
0.0649647
0.0656056
0.0661576
0.0665957
0.0668996
0.0670554
0.0670558
0.0669008
0.0665975
0.06616
0.0656083
0.0649677
0.064267
0.0635377
0.0628118
0.0621209
0.0614946
0.0609594
0.0605369
0.0602472
0.0600923
0.0671847
0.0673257
0.0675892
0.0679735
0.0684606
0.0690303
0.0696585
0.0703179
0.0709801
0.0716157
0.0721968
0.0726971
0.0730939
0.0733691
0.07351
0.0735103
0.0733699
0.0730952
0.0726991
0.0721994
0.0716188
0.0709836
0.0703221
0.0696634
0.0690362
0.0684676
0.0679814
0.0675975
0.0673343
0.0671935
0.07361
0.073737
0.0739745
0.0743211
0.0747604
0.075274
0.0758401
0.0764341
0.0770302
0.0776022
0.0781248
0.0785746
0.0789313
0.0791784
0.079305
0.0793051
0.079179
0.0789322
0.0785763
0.0781273
0.0776053
0.077034
0.0764388
0.0758458
0.075281
0.0747687
0.0743305
0.0739846
0.0737475
0.0736208
0.079511
0.0796244
0.0798369
0.0801472
0.0805403
0.0809999
0.0815062
0.0820371
0.0825697
0.0830805
0.0835471
0.0839486
0.0842668
0.0844873
0.0846002
0.0846003
0.0844877
0.0842677
0.0839502
0.0835496
0.083084
0.082574
0.0820424
0.0815126
0.0810078
0.0805498
0.0801581
0.079849
0.0796371
0.0795239
0.0850265
0.0851268
0.0853155
0.0855913
0.0859406
0.0863487
0.0867981
0.0872692
0.0877416
0.0881946
0.0886083
0.0889642
0.0892462
0.0894416
0.0895415
0.0895416
0.0894419
0.089247
0.0889659
0.0886111
0.0881985
0.0877465
0.0872752
0.0868054
0.0863576
0.0859512
0.0856038
0.0853296
0.0851415
0.0850412
0.0902863
0.0903742
0.0905407
0.090784
0.091092
0.0914518
0.0918478
0.0922629
0.092679
0.093078
0.0934423
0.0937557
0.094004
0.094176
0.0942639
0.094264
0.0941763
0.094005
0.0937577
0.0934456
0.0930825
0.0926847
0.0922699
0.0918563
0.091462
0.0911041
0.0907981
0.0905564
0.0903906
0.0903027
0.0954142
0.0954905
0.0956363
0.0958492
0.0961188
0.0964337
0.0967803
0.0971436
0.0975077
0.0978568
0.0981756
0.0984498
0.098667
0.0988175
0.0988945
0.0988947
0.0988182
0.0986685
0.0984524
0.0981796
0.0978623
0.0975146
0.097152
0.0967904
0.0964456
0.0961325
0.0958647
0.0956534
0.0955086
0.0954325
0.100531
0.100596
0.100723
0.100908
0.101142
0.101416
0.101717
0.102033
0.10235
0.102653
0.10293
0.103169
0.103358
0.103489
0.103556
0.103556
0.10349
0.10336
0.103172
0.102935
0.10266
0.102358
0.102043
0.101729
0.101429
0.101157
0.100925
0.100741
0.100616
0.100551
0.105757
0.105813
0.105921
0.106081
0.106283
0.106519
0.10678
0.107052
0.107326
0.107588
0.107828
0.108034
0.108198
0.108311
0.108369
0.10837
0.108313
0.108201
0.108039
0.107834
0.107596
0.107336
0.107065
0.106794
0.106535
0.1063
0.1061
0.105942
0.105834
0.105779
0.11122
0.111266
0.111358
0.111495
0.111668
0.111871
0.112094
0.112328
0.112563
0.112788
0.112994
0.113171
0.113312
0.11341
0.11346
0.113461
0.113412
0.113316
0.113177
0.113002
0.112798
0.112575
0.112342
0.11211
0.111889
0.111688
0.111516
0.11138
0.111288
0.111243
0.117055
0.117092
0.11717
0.117286
0.117434
0.117606
0.117797
0.117996
0.118196
0.118388
0.118564
0.118716
0.118836
0.11892
0.118963
0.118965
0.118923
0.118842
0.118723
0.118574
0.118401
0.118211
0.118013
0.117815
0.117626
0.117455
0.117309
0.117194
0.117116
0.11708
0.123416
0.123445
0.123511
0.123609
0.123734
0.12388
0.124041
0.12421
0.124379
0.124542
0.124691
0.124821
0.124923
0.124995
0.125032
0.125034
0.124999
0.12493
0.12483
0.124704
0.124557
0.124396
0.124228
0.124061
0.123901
0.123756
0.123633
0.123536
0.123472
0.123444
0.130486
0.130507
0.130562
0.130644
0.130748
0.130871
0.131006
0.131148
0.131291
0.131429
0.131555
0.131665
0.131753
0.131814
0.131846
0.131847
0.131818
0.13176
0.131676
0.13157
0.131446
0.13131
0.131169
0.131028
0.130894
0.130773
0.130669
0.130589
0.130535
0.130515
0.13848
0.138494
0.13854
0.138608
0.138694
0.138797
0.13891
0.139029
0.13915
0.139266
0.139373
0.139465
0.139539
0.139592
0.139619
0.139621
0.139597
0.139548
0.139477
0.139388
0.139284
0.13917
0.139052
0.138934
0.138822
0.138721
0.138635
0.138568
0.138524
0.138512
0.147659
0.147668
0.147706
0.147762
0.147833
0.147919
0.148013
0.148114
0.148215
0.148312
0.148402
0.148481
0.148544
0.148588
0.148612
0.148614
0.148593
0.148553
0.148493
0.148418
0.148331
0.148236
0.148137
0.148039
0.147945
0.147861
0.147791
0.147736
0.1477
0.147692
0.158318
0.158329
0.158361
0.158407
0.158467
0.158538
0.158618
0.158702
0.158787
0.158869
0.158946
0.159012
0.159065
0.159103
0.159124
0.159126
0.159109
0.159074
0.159024
0.158961
0.158888
0.158808
0.158726
0.158643
0.158566
0.158496
0.158438
0.158393
0.158363
0.158352
0.17074
0.170771
0.170801
0.170841
0.170891
0.170951
0.171018
0.17109
0.171162
0.171232
0.171297
0.171354
0.1714
0.171433
0.17145
0.171452
0.171438
0.171408
0.171365
0.171312
0.17125
0.171183
0.171113
0.171045
0.17098
0.170922
0.170873
0.170835
0.170806
0.170776
0.185016
0.185052
0.185074
0.185105
0.185147
0.185198
0.185256
0.185318
0.18538
0.185441
0.185498
0.185548
0.185588
0.185616
0.185631
0.185633
0.18562
0.185594
0.185558
0.185511
0.185459
0.185401
0.185342
0.185283
0.185228
0.185179
0.185138
0.185108
0.185088
0.185053
0.199799
0.200078
0.20013
0.200166
0.200207
0.200254
0.200305
0.20036
0.200416
0.200471
0.200522
0.200566
0.200603
0.200628
0.200642
0.200643
0.200632
0.200609
0.200576
0.200535
0.200488
0.200437
0.200384
0.200332
0.200283
0.200239
0.2002
0.200166
0.200115
0.199836
0.217115
0.217312
0.217373
0.217401
0.217436
0.217477
0.217525
0.217576
0.217628
0.217679
0.217727
0.217769
0.217803
0.217827
0.21784
0.217841
0.21783
0.217809
0.217778
0.217739
0.217696
0.217648
0.2176
0.217552
0.217507
0.217468
0.217435
0.217409
0.217349
0.217153
-0.029147
-0.0289455
-0.0284473
-0.0277104
-0.0267709
-0.0256648
-0.0244401
-0.0231486
-0.021846
-0.0205899
-0.0194371
-0.0184409
-0.0176484
-0.0170977
-0.0168158
-0.0168159
-0.0170981
-0.0176488
-0.0184412
-0.0194373
-0.02059
-0.021846
-0.0231485
-0.0244401
-0.0256646
-0.0267705
-0.0277097
-0.0284463
-0.0289441
-0.0291455
-0.0343628
-0.0340318
-0.0335214
-0.0327753
-0.0318328
-0.0307259
-0.0295012
-0.0282097
-0.0269072
-0.0256511
-0.024498
-0.0235014
-0.0227084
-0.0221571
-0.0218747
-0.0218748
-0.0221575
-0.0227088
-0.0235016
-0.024498
-0.0256509
-0.026907
-0.0282096
-0.0295012
-0.0307258
-0.0318326
-0.0327749
-0.0335207
-0.0340307
-0.0343616
-0.019657
-0.0194869
-0.0189897
-0.0182628
-0.0173342
-0.0162415
-0.0150315
-0.0137552
-0.012468
-0.0112267
-0.0100873
-0.00910267
-0.00831923
-0.00777479
-0.00749592
-0.00749604
-0.00777503
-0.00831935
-0.00910249
-0.0100869
-0.0112261
-0.0124676
-0.0137551
-0.0150315
-0.0162417
-0.0173343
-0.0182627
-0.0189893
-0.0194862
-0.019656
-0.00847211
-0.00819115
-0.00769421
-0.00697419
-0.00606212
-0.00499212
-0.00380841
-0.0025605
-0.00130213
-8.87771e-05
0.00102478
0.0019871
0.0027527
0.00328478
0.00355741
0.00355741
0.00328486
0.00275306
0.00198781
0.00102576
-8.78124e-05
-0.00130144
-0.0025602
-0.00380839
-0.00499223
-0.00606221
-0.00697418
-0.00769401
-0.00819062
-0.00847125
0.00490433
0.00512408
0.0055946
0.0062864
0.00716667
0.00820062
0.00934487
0.0105511
0.0117673
0.0129398
0.0140155
0.014945
0.0156843
0.016198
0.0164614
0.0164616
0.0161986
0.0156853
0.0149463
0.014017
0.012941
0.0117682
0.0105516
0.00934516
0.00820085
0.00716687
0.00628661
0.0055949
0.00512462
0.00490513
0.0169522
0.0171892
0.0176448
0.0183096
0.0191534
0.0201432
0.021238
0.0223916
0.0235543
0.0246748
0.0257026
0.0265904
0.0272964
0.027787
0.0280386
0.028039
0.0277881
0.027298
0.0265923
0.0257044
0.0246763
0.0235553
0.0223923
0.0212386
0.0201438
0.019154
0.0183103
0.0176455
0.01719
0.0169532
0.0281417
0.0283626
0.0287927
0.0294221
0.0302212
0.0311584
0.0321946
0.0332862
0.034386
0.0354455
0.036417
0.0372558
0.0379228
0.0383862
0.0386239
0.0386244
0.0383876
0.0379248
0.0372581
0.0364191
0.0354472
0.0343872
0.0332872
0.0321956
0.0311595
0.0302224
0.0294234
0.0287941
0.028364
0.0281433
0.0382075
0.0384178
0.038822
0.0394128
0.0401624
0.0410411
0.0420122
0.0430347
0.0440645
0.0450561
0.0459649
0.0467494
0.047373
0.0478062
0.0480285
0.048029
0.0478078
0.0473753
0.0467519
0.0459672
0.0450579
0.044066
0.0430361
0.0420138
0.041043
0.0401646
0.0394151
0.0388244
0.0384202
0.0382099
0.04723
0.0474259
0.0478015
0.0483504
0.0490467
0.0498625
0.0507639
0.0517125
0.0526674
0.0535864
0.0544283
0.0551548
0.0557321
0.0561332
0.0563389
0.0563394
0.0561348
0.0557346
0.0551576
0.054431
0.0535887
0.0526695
0.0517148
0.0507665
0.0498656
0.0490501
0.048354
0.0478052
0.0474296
0.0472336
0.0552967
0.0554775
0.0558234
0.0563287
0.0569696
0.0577203
0.0585493
0.0594213
0.0602985
0.0611424
0.0619151
0.0625817
0.0631113
0.063479
0.0636675
0.0636681
0.0634805
0.0631136
0.0625847
0.0619183
0.0611455
0.0603016
0.0594246
0.058553
0.0577246
0.0569744
0.0563338
0.0558286