/*--------------------------------*- C++ -*----------------------------------*\
| =========                 |                                                 |
| \\      /  F ield         | OpenFOAM: The Open Source CFD Toolbox           |
|  \\    /   O peration     | Version:  2506                                  |
|   \\  /    A nd           | Website:  www.openfoam.com                      |
|    \\/     M anipulation  |                                                 |
\*---------------------------------------------------------------------------*/
FoamFile
{
    version     2.0;
    format      ascii;
    arch        "LSB;label=32;scalar=64";
    class       volScalarField;
    location    "10";
    object      epsilon;
}
// * * * * * * * * * * * * * * * * * * * * * * * * * * * * * * * * * * * * * //

dimensions      [0 2 -3 0 0 0 0];

internalField   nonuniform List<scalar> 
144676
(
0.116223
0.116231
0.116236
0.116241
0.116239
0.116237
0.116235
0.116236
0.116235
0.11623
0.116221
0.11622
0.116224
0.116229
0.116228
0.116225
0.116224
0.116224
0.116223
0.116223
0.116228
0.116233
0.116233
0.116232
0.116231
0.116231
0.116231
0.116232
0.116229
0.116217
0.0471508
0.0471444
0.0471477
0.0471502
0.0471514
0.0471528
0.047154
0.0471545
0.047154
0.0471523
0.0471521
0.0471542
0.0471569
0.0471574
0.0471565
0.0471566
0.0471569
0.0471558
0.047154
0.0471537
0.0471545
0.0471543
0.0471529
0.0471511
0.0471496
0.0471491
0.0471493
0.0471477
0.0471459
0.0471511
0.0282994
0.0283015
0.0283028
0.0283042
0.0283052
0.0283057
0.0283064
0.0283073
0.0283078
0.0283082
0.0283089
0.02831
0.0283106
0.0283105
0.0283103
0.0283105
0.0283103
0.0283095
0.0283088
0.0283085
0.0283082
0.0283076
0.028307
0.0283063
0.0283057
0.0283053
0.0283048
0.0283041
0.0283032
0.0283002
0.0202479
0.0202513
0.0202531
0.0202544
0.0202549
0.0202552
0.0202556
0.0202562
0.0202567
0.0202571
0.0202576
0.020258
0.0202582
0.0202581
0.0202582
0.0202582
0.020258
0.0202576
0.0202572
0.020257
0.0202568
0.0202565
0.0202563
0.0202559
0.0202555
0.020255
0.0202546
0.0202538
0.0202522
0.0202483
0.0157817
0.015786
0.0157885
0.0157897
0.01579
0.0157902
0.0157904
0.0157908
0.0157911
0.0157914
0.0157917
0.015792
0.0157921
0.0157922
0.0157923
0.0157922
0.0157921
0.0157918
0.0157916
0.0157915
0.0157913
0.0157912
0.015791
0.0157907
0.0157904
0.0157899
0.0157895
0.0157884
0.0157861
0.0157817
0.0129346
0.0129393
0.012942
0.0129432
0.0129435
0.0129437
0.0129439
0.0129441
0.0129443
0.0129445
0.0129447
0.012945
0.0129451
0.0129452
0.0129453
0.0129452
0.0129451
0.012945
0.0129448
0.0129447
0.0129446
0.0129445
0.0129443
0.0129441
0.0129438
0.0129435
0.012943
0.0129418
0.012939
0.0129346
0.0109607
0.0109654
0.0109682
0.0109694
0.0109697
0.0109699
0.0109701
0.0109702
0.0109703
0.0109705
0.0109708
0.010971
0.0109711
0.0109712
0.0109712
0.0109711
0.010971
0.0109709
0.0109708
0.0109707
0.0109706
0.0109705
0.0109704
0.0109702
0.01097
0.0109698
0.0109693
0.0109681
0.0109652
0.0109607
0.00951159
0.00951623
0.00951909
0.00952028
0.00952072
0.00952095
0.00952108
0.00952114
0.00952123
0.00952139
0.00952159
0.00952173
0.00952182
0.00952189
0.0095219
0.00952182
0.0095217
0.0095216
0.00952152
0.00952143
0.00952135
0.00952125
0.00952118
0.00952109
0.00952094
0.00952077
0.00952037
0.00951911
0.00951626
0.00951165
0.00840272
0.00840735
0.00841018
0.0084114
0.00841188
0.00841209
0.00841218
0.0084122
0.00841225
0.00841237
0.00841248
0.00841256
0.00841262
0.00841268
0.00841268
0.00841261
0.00841252
0.00841244
0.00841238
0.00841233
0.00841226
0.00841219
0.00841215
0.00841207
0.00841196
0.00841183
0.00841143
0.00841022
0.00840742
0.00840284
0.00752701
0.00753163
0.00753437
0.00753555
0.00753601
0.0075362
0.00753624
0.00753624
0.00753626
0.00753631
0.00753636
0.00753641
0.00753646
0.00753652
0.00753653
0.00753649
0.00753644
0.0075364
0.00753638
0.00753634
0.00753628
0.00753622
0.00753618
0.0075361
0.00753601
0.0075359
0.00753552
0.00753436
0.00753165
0.0075272
0.00681803
0.00682258
0.00682519
0.0068263
0.00682673
0.00682688
0.00682692
0.0068269
0.00682691
0.00682693
0.00682695
0.00682697
0.00682703
0.00682709
0.00682712
0.00682711
0.00682709
0.00682708
0.00682707
0.00682703
0.00682697
0.00682691
0.00682687
0.00682679
0.00682673
0.00682663
0.00682627
0.00682518
0.0068226
0.0068183
0.00623234
0.00623679
0.00623927
0.00624032
0.00624071
0.00624085
0.00624088
0.00624087
0.00624087
0.00624088
0.00624089
0.00624091
0.00624096
0.00624102
0.00624105
0.00624105
0.00624105
0.00624105
0.00624104
0.00624099
0.00624092
0.00624088
0.00624084
0.00624079
0.00624075
0.00624066
0.00624032
0.00623931
0.00623688
0.00623269
0.0057404
0.00574479
0.00574716
0.00574813
0.00574848
0.0057486
0.00574862
0.00574862
0.00574862
0.00574863
0.00574864
0.00574867
0.00574871
0.00574876
0.00574878
0.00574878
0.00574877
0.00574877
0.00574875
0.0057487
0.00574863
0.00574861
0.00574859
0.00574855
0.00574853
0.00574845
0.00574814
0.00574721
0.00574489
0.00574079
0.00532141
0.0053258
0.00532805
0.00532895
0.00532925
0.00532933
0.00532935
0.00532935
0.00532935
0.00532937
0.00532939
0.00532941
0.00532944
0.00532947
0.00532948
0.00532947
0.00532946
0.00532945
0.00532943
0.00532938
0.00532934
0.00532933
0.00532932
0.0053293
0.00532928
0.00532921
0.00532895
0.00532808
0.00532586
0.00532184
0.00496033
0.00496472
0.00496685
0.00496766
0.00496792
0.00496798
0.00496799
0.00496798
0.004968
0.00496802
0.00496804
0.00496805
0.00496807
0.00496808
0.00496808
0.00496808
0.00496807
0.00496806
0.00496804
0.004968
0.00496798
0.00496798
0.00496798
0.00496797
0.00496796
0.00496791
0.00496767
0.00496685
0.00496472
0.00496079
0.00464593
0.0046503
0.00465233
0.00465308
0.0046533
0.00465335
0.00465335
0.00465335
0.00465336
0.00465338
0.00465339
0.0046534
0.0046534
0.0046534
0.0046534
0.0046534
0.0046534
0.00465339
0.00465337
0.00465335
0.00465334
0.00465335
0.00465335
0.00465335
0.00465335
0.00465331
0.00465309
0.00465231
0.00465029
0.00464642
0.00436969
0.00437404
0.00437599
0.0043767
0.00437691
0.00437695
0.00437695
0.00437694
0.00437694
0.00437695
0.00437695
0.00437694
0.00437694
0.00437695
0.00437695
0.00437695
0.00437694
0.00437693
0.00437692
0.00437691
0.00437691
0.00437693
0.00437694
0.00437694
0.00437695
0.00437692
0.00437671
0.00437598
0.00437404
0.00437022
0.00412507
0.0041294
0.00413131
0.00413199
0.00413219
0.00413222
0.00413221
0.00413219
0.00413218
0.00413217
0.00413216
0.00413216
0.00413216
0.00413216
0.00413216
0.00413216
0.00413215
0.00413215
0.00413215
0.00413214
0.00413215
0.00413218
0.0041322
0.00413221
0.00413221
0.00413218
0.00413199
0.0041313
0.00412943
0.00412565
0.00390696
0.00391129
0.00391316
0.00391381
0.00391399
0.00391401
0.00391398
0.00391395
0.00391393
0.00391392
0.00391392
0.00391391
0.00391392
0.00391392
0.00391393
0.00391393
0.00391392
0.00391392
0.00391392
0.00391393
0.00391394
0.00391396
0.00391399
0.003914
0.003914
0.00391397
0.00391379
0.00391314
0.00391132
0.00390758
0.00371128
0.00371564
0.00371747
0.00371809
0.00371824
0.00371824
0.0037182
0.00371817
0.00371815
0.00371815
0.00371815
0.00371815
0.00371815
0.00371816
0.00371816
0.00371816
0.00371815
0.00371815
0.00371815
0.00371816
0.00371816
0.00371819
0.00371821
0.00371823
0.00371824
0.00371822
0.00371806
0.00371743
0.00371566
0.00371196
0.00353477
0.00353917
0.00354096
0.00354154
0.00354166
0.00354165
0.00354161
0.00354158
0.00354157
0.00354157
0.00354156
0.00354156
0.00354156
0.00354156
0.00354156
0.00354155
0.00354155
0.00354155
0.00354155
0.00354155
0.00354157
0.00354159
0.00354161
0.00354163
0.00354165
0.00354164
0.0035415
0.00354089
0.00353918
0.0035355
0.00337476
0.00337919
0.00338094
0.00338149
0.00338159
0.00338157
0.00338153
0.0033815
0.00338149
0.00338148
0.00338148
0.00338147
0.00338147
0.00338146
0.00338146
0.00338145
0.00338145
0.00338145
0.00338145
0.00338146
0.00338148
0.00338149
0.00338151
0.00338154
0.00338157
0.00338157
0.00338144
0.00338086
0.00337919
0.00337552
0.00322904
0.00323349
0.00323522
0.00323573
0.00323582
0.0032358
0.00323575
0.00323572
0.0032357
0.0032357
0.00323569
0.00323569
0.00323568
0.00323568
0.00323566
0.00323565
0.00323565
0.00323566
0.00323567
0.00323568
0.0032357
0.00323571
0.00323573
0.00323576
0.0032358
0.00323581
0.00323569
0.00323515
0.00323351
0.00322983
0.00309578
0.00310026
0.00310197
0.00310246
0.00310254
0.0031025
0.00310246
0.00310242
0.00310241
0.0031024
0.0031024
0.00310239
0.00310238
0.00310237
0.00310235
0.00310234
0.00310235
0.00310236
0.00310237
0.00310239
0.0031024
0.00310241
0.00310243
0.00310246
0.00310251
0.00310253
0.00310243
0.00310192
0.0031003
0.00309661
0.00297347
0.002978
0.00297969
0.00298016
0.00298022
0.00298018
0.00298013
0.0029801
0.00298008
0.00298007
0.00298006
0.00298005
0.00298004
0.00298002
0.00298001
0.00298001
0.00298002
0.00298003
0.00298004
0.00298005
0.00298006
0.00298008
0.0029801
0.00298013
0.00298018
0.00298021
0.00298014
0.00297965
0.00297805
0.00297434
0.00286089
0.00286545
0.00286713
0.00286757
0.00286761
0.00286757
0.00286752
0.00286748
0.00286746
0.00286744
0.00286743
0.00286742
0.00286741
0.0028674
0.00286739
0.00286739
0.00286739
0.00286741
0.00286742
0.00286743
0.00286744
0.00286746
0.00286748
0.00286751
0.00286755
0.0028676
0.00286754
0.00286707
0.0028655
0.00286178
0.00275705
0.00276164
0.00276326
0.00276367
0.00276369
0.00276363
0.00276358
0.00276354
0.00276351
0.0027635
0.00276349
0.00276348
0.00276347
0.00276346
0.00276345
0.00276345
0.00276346
0.00276348
0.00276349
0.0027635
0.00276351
0.00276352
0.00276353
0.00276356
0.00276361
0.00276367
0.00276363
0.0027632
0.00276168
0.00275797
0.00266142
0.00266593
0.00266743
0.00266776
0.00266775
0.00266768
0.00266763
0.00266759
0.00266757
0.00266756
0.00266755
0.00266755
0.00266754
0.00266753
0.00266752
0.00266752
0.00266754
0.00266755
0.00266755
0.00266756
0.00266757
0.00266757
0.00266759
0.00266761
0.00266766
0.00266772
0.00266771
0.00266736
0.00266596
0.00266232
0.00257483
0.00257898
0.00258017
0.00258034
0.00258028
0.00258021
0.00258017
0.00258015
0.00258013
0.00258013
0.00258012
0.00258012
0.00258011
0.0025801
0.0025801
0.0025801
0.00258011
0.00258011
0.00258012
0.00258012
0.00258013
0.00258013
0.00258014
0.00258016
0.0025802
0.00258026
0.00258029
0.00258008
0.00257896
0.00257564
0.00250514
0.0025083
0.00250894
0.00250892
0.00250882
0.00250876
0.00250873
0.00250872
0.00250872
0.00250872
0.00250871
0.00250871
0.00250871
0.0025087
0.0025087
0.0025087
0.0025087
0.0025087
0.00250871
0.00250872
0.00250872
0.00250872
0.00250871
0.00250872
0.00250874
0.0025088
0.00250887
0.00250884
0.00250821
0.00250571
0.0964538
0.096496
0.0964995
0.0964888
0.0964765
0.096468
0.096466
0.0964668
0.0964593
0.096447
0.0964376
0.0964377
0.0964425
0.096443
0.0964384
0.0964362
0.0964356
0.0964346
0.0964358
0.0964436
0.0964538
0.0964589
0.0964593
0.0964602
0.0964621
0.0964656
0.0964735
0.0964852
0.096488
0.0964488
0.0469465
0.0469394
0.0469435
0.046948
0.0469508
0.0469544
0.0469583
0.0469597
0.0469582
0.046955
0.0469553
0.0469593
0.046963
0.0469632
0.0469625
0.0469631
0.0469631
0.0469608
0.0469587
0.0469593
0.0469602
0.0469592
0.0469566
0.0469532
0.0469503
0.0469489
0.046948
0.046945
0.0469408
0.0469457
0.0282961
0.0283003
0.0283039
0.0283068
0.0283086
0.0283103
0.0283119
0.0283132
0.0283136
0.0283135
0.0283145
0.0283162
0.0283171
0.028317
0.0283171
0.0283175
0.0283171
0.0283159
0.0283149
0.0283146
0.0283141
0.0283134
0.0283124
0.028311
0.0283097
0.0283086
0.0283076
0.0283056
0.0283022
0.0282963
0.0201612
0.0201725
0.0201793
0.0201825
0.0201837
0.0201846
0.0201856
0.0201865
0.0201869
0.0201874
0.020188
0.0201886
0.0201888
0.0201888
0.020189
0.0201892
0.0201888
0.0201882
0.0201877
0.0201874
0.0201871
0.0201868
0.0201863
0.0201855
0.0201846
0.0201836
0.0201826
0.0201798
0.0201731
0.020161
0.0156843
0.0156986
0.0157074
0.0157109
0.0157119
0.0157124
0.015713
0.0157136
0.015714
0.0157143
0.0157148
0.0157152
0.0157153
0.0157154
0.0157156
0.0157156
0.0157154
0.0157151
0.0157148
0.0157146
0.0157144
0.0157143
0.0157139
0.0157134
0.0157126
0.0157118
0.0157106
0.0157069
0.015698
0.0156837
0.0128471
0.0128621
0.0128715
0.0128751
0.0128761
0.0128765
0.0128769
0.0128772
0.0128775
0.0128778
0.0128782
0.0128784
0.0128786
0.0128788
0.0128789
0.0128788
0.0128786
0.0128785
0.0128784
0.0128783
0.0128782
0.0128781
0.0128779
0.0128775
0.0128769
0.0128762
0.0128749
0.0128709
0.0128613
0.0128464
0.0108886
0.0109035
0.0109129
0.0109165
0.0109176
0.0109179
0.0109182
0.0109183
0.0109185
0.0109189
0.0109193
0.0109196
0.0109198
0.0109199
0.0109199
0.0109198
0.0109196
0.0109194
0.0109193
0.0109192
0.0109191
0.010919
0.0109189
0.0109187
0.0109183
0.0109179
0.0109166
0.0109127
0.010903
0.0108881
0.00945593
0.00947065
0.00947981
0.0094834
0.00948456
0.00948501
0.00948516
0.00948525
0.0094854
0.00948571
0.00948597
0.00948614
0.00948626
0.00948634
0.00948628
0.00948609
0.00948588
0.00948572
0.00948563
0.0094856
0.00948556
0.00948553
0.00948551
0.00948537
0.00948512
0.00948474
0.00948351
0.00947972
0.00947034
0.00945553
0.00836308
0.00837765
0.00838646
0.00839
0.00839122
0.0083916
0.00839165
0.00839163
0.00839171
0.00839186
0.00839198
0.00839204
0.00839211
0.00839217
0.00839211
0.00839194
0.00839177
0.00839168
0.00839166
0.00839166
0.00839164
0.00839165
0.00839166
0.00839155
0.00839139
0.00839108
0.00838991
0.00838627
0.00837727
0.00836283
0.00750253
0.00751691
0.00752527
0.00752867
0.00752983
0.00753013
0.00753012
0.00753003
0.00753003
0.00753006
0.00753006
0.00753007
0.00753014
0.0075302
0.00753018
0.00753008
0.00753
0.00752998
0.00753001
0.00753002
0.00753
0.00753
0.00752999
0.00752989
0.0075298
0.00752953
0.00752844
0.00752499
0.00751648
0.00750246
0.00680765
0.00682179
0.00682966
0.00683285
0.00683394
0.00683421
0.00683417
0.00683409
0.00683403
0.00683399
0.00683394
0.00683393
0.006834
0.00683408
0.00683409
0.00683406
0.00683405
0.00683408
0.00683412
0.00683411
0.00683407
0.00683406
0.00683404
0.00683398
0.00683393
0.0068337
0.00683268
0.00682947
0.00682147
0.00680781
0.00623497
0.00624893
0.00625637
0.00625935
0.00626034
0.0062606
0.00626057
0.00626049
0.00626042
0.00626035
0.00626028
0.00626028
0.00626035
0.00626042
0.00626046
0.00626046
0.00626047
0.00626051
0.00626052
0.00626048
0.00626043
0.00626043
0.00626042
0.0062604
0.00626038
0.00626016
0.00625926
0.00625629
0.00624874
0.00623534
0.00575507
0.00576895
0.00577601
0.00577877
0.00577966
0.00577986
0.00577982
0.00577974
0.00577968
0.00577962
0.00577957
0.00577958
0.00577963
0.00577969
0.00577972
0.00577972
0.00577973
0.00577975
0.00577974
0.00577968
0.00577963
0.00577965
0.00577965
0.00577966
0.00577966
0.0057795
0.00577869
0.00577592
0.00576874
0.00575555
0.00534727
0.00536114
0.00536784
0.00537037
0.00537113
0.00537127
0.00537122
0.00537115
0.0053711
0.00537106
0.00537103
0.00537103
0.00537107
0.0053711
0.00537111
0.00537111
0.00537112
0.00537112
0.0053711
0.00537105
0.00537102
0.00537105
0.00537108
0.0053711
0.00537113
0.00537101
0.00537029
0.00536767
0.0053608
0.0053478
0.00499652
0.0050104
0.00501677
0.00501908
0.00501975
0.00501985
0.00501979
0.00501974
0.0050197
0.00501968
0.00501966
0.00501964
0.00501965
0.00501966
0.00501967
0.00501967
0.00501968
0.00501969
0.00501966
0.00501962
0.00501962
0.00501966
0.00501969
0.00501973
0.00501978
0.00501971
0.00501905
0.00501656
0.00500997
0.00499709
0.00469165
0.00470553
0.00471163
0.00471379
0.00471439
0.00471448
0.00471442
0.00471436
0.00471433
0.00471431
0.00471427
0.00471424
0.00471423
0.00471424
0.00471425
0.00471425
0.00471426
0.00471425
0.00471422
0.0047142
0.00471422
0.00471428
0.00471432
0.00471437
0.00471445
0.0047144
0.00471378
0.00471143
0.00470508
0.00469228
0.00442419
0.0044381
0.00444402
0.00444606
0.00444663
0.00444669
0.00444663
0.00444656
0.00444651
0.00444647
0.00444641
0.00444637
0.00444636
0.00444637
0.00444638
0.00444638
0.00444637
0.00444636
0.00444635
0.00444635
0.00444639
0.00444646
0.00444652
0.00444658
0.00444666
0.00444661
0.00444602
0.0044438
0.00443767
0.00442491
0.00418768
0.00420166
0.00420744
0.0042094
0.00420993
0.00420997
0.00420988
0.00420978
0.00420972
0.00420966
0.00420961
0.00420957
0.00420957
0.00420958
0.00420958
0.00420958
0.00420957
0.00420957
0.00420957
0.00420959
0.00420964
0.00420972
0.00420979
0.00420986
0.00420991
0.00420985
0.00420931
0.00420721
0.00420125
0.00418852
0.00397711
0.00399119
0.00399687
0.00399874
0.0039992
0.0039992
0.00399908
0.00399897
0.0039989
0.00399886
0.00399882
0.00399879
0.00399879
0.0039988
0.00399881
0.00399881
0.0039988
0.00399881
0.00399881
0.00399883
0.00399888
0.00399895
0.00399903
0.0039991
0.00399915
0.0039991
0.0039986
0.00399659
0.00399078
0.00397808
0.00378849
0.00380269
0.00380827
0.00381004
0.00381042
0.00381038
0.00381025
0.00381015
0.0038101
0.00381007
0.00381004
0.00381001
0.00381001
0.00381001
0.00381001
0.00381001
0.00381
0.00381001
0.00381001
0.00381003
0.00381007
0.00381014
0.00381022
0.00381029
0.00381036
0.00381034
0.00380987
0.00380794
0.00380227
0.00378958
0.00361861
0.00363294
0.00363842
0.00364008
0.0036404
0.00364034
0.00364022
0.00364012
0.00364008
0.00364004
0.00364001
0.00363998
0.00363997
0.00363997
0.00363995
0.00363994
0.00363994
0.00363994
0.00363995
0.00363997
0.00364001
0.00364008
0.00364016
0.00364024
0.00364033
0.00364033
0.0036399
0.00363805
0.00363249
0.00361978
0.00346482
0.00347927
0.00348467
0.00348625
0.00348652
0.00348645
0.00348632
0.00348622
0.00348617
0.00348614
0.00348611
0.00348609
0.00348607
0.00348605
0.00348602
0.003486
0.003486
0.00348601
0.00348603
0.00348606
0.0034861
0.00348616
0.00348624
0.00348633
0.00348644
0.00348646
0.00348607
0.0034843
0.00347883
0.00346606
0.00332498
0.00333954
0.00334489
0.0033464
0.00334663
0.00334653
0.00334639
0.0033463
0.00334624
0.00334622
0.00334619
0.00334617
0.00334615
0.00334611
0.00334607
0.00334604
0.00334605
0.00334608
0.00334611
0.00334615
0.00334619
0.00334624
0.00334631
0.00334642
0.00334654
0.00334658
0.00334624
0.00334454
0.00333912
0.00332629
0.00319731
0.00321201
0.00321731
0.00321876
0.00321894
0.00321882
0.00321868
0.00321859
0.00321854
0.00321851
0.00321849
0.00321846
0.00321842
0.00321837
0.00321833
0.00321831
0.00321834
0.00321837
0.00321841
0.00321845
0.00321849
0.00321853
0.0032186
0.00321871
0.00321885
0.00321892
0.00321863
0.00321699
0.00321161
0.00319871
0.00308041
0.00309524
0.00310051
0.00310189
0.00310203
0.00310189
0.00310174
0.00310164
0.00310159
0.00310155
0.00310152
0.00310148
0.00310144
0.00310139
0.00310135
0.00310135
0.00310138
0.00310142
0.00310146
0.0031015
0.00310153
0.00310158
0.00310165
0.00310176
0.0031019
0.003102
0.00310176
0.00310018
0.00309486
0.0030819
0.00297317
0.00298811
0.00299331
0.00299461
0.0029947
0.00299453
0.00299438
0.00299427
0.0029942
0.00299416
0.00299412
0.00299409
0.00299405
0.00299401
0.00299398
0.00299398
0.00299401
0.00299405
0.00299409
0.00299413
0.00299417
0.00299421
0.00299427
0.00299437
0.00299452
0.00299465
0.00299447
0.00299298
0.00298773
0.00297472
0.00287489
0.00288983
0.00289486
0.00289602
0.00289604
0.00289585
0.00289568
0.00289557
0.00289549
0.00289545
0.00289542
0.0028954
0.00289536
0.00289532
0.0028953
0.0028953
0.00289533
0.00289537
0.00289541
0.00289544
0.00289547
0.00289551
0.00289556
0.00289566
0.00289582
0.00289598
0.00289587
0.00289451
0.00288943
0.00287646
0.00278562
0.00280019
0.00280475
0.00280564
0.00280555
0.00280533
0.00280517
0.00280506
0.002805
0.00280497
0.00280495
0.00280493
0.00280489
0.00280486
0.00280484
0.00280485
0.00280488
0.00280491
0.00280493
0.00280496
0.00280498
0.00280501
0.00280505
0.00280515
0.0028053
0.00280548
0.00280547
0.00280437
0.00279972
0.00278711
0.0027075
0.00272067
0.00272408
0.00272444
0.00272418
0.00272394
0.00272381
0.00272375
0.00272371
0.00272369
0.00272367
0.00272366
0.00272363
0.0027236
0.00272359
0.0027236
0.00272361
0.00272363
0.00272366
0.00272368
0.00272369
0.0027237
0.00272373
0.00272379
0.00272392
0.00272411
0.00272426
0.00272365
0.00272002
0.00270864
0.00264812
0.0026581
0.00265977
0.00265949
0.0026591
0.00265889
0.00265882
0.00265879
0.00265878
0.00265878
0.00265878
0.00265878
0.00265876
0.00265874
0.00265873
0.00265873
0.00265874
0.00265875
0.00265877
0.00265878
0.00265878
0.00265878
0.00265877
0.00265879
0.00265886
0.00265904
0.00265932
0.0026593
0.00265722
0.00264843
0.0827905
0.0828336
0.0828237
0.0827999
0.082784
0.082774
0.0827748
0.0827749
0.0827671
0.0827516
0.0827392
0.0827337
0.0827331
0.0827304
0.0827278
0.0827266
0.0827255
0.0827259
0.0827321
0.0827441
0.0827562
0.0827638
0.0827686
0.0827729
0.0827771
0.0827849
0.0827964
0.082812
0.0828203
0.0827803
0.0461971
0.046186
0.0461819
0.0461842
0.0461889
0.046197
0.0462048
0.046208
0.046206
0.0462025
0.0462031
0.0462079
0.0462117
0.0462123
0.0462123
0.0462132
0.0462129
0.0462106
0.0462091
0.0462094
0.0462095
0.046208
0.0462043
0.0461991
0.0461942
0.0461903
0.0461879
0.0461849
0.0461852
0.0461919
0.0281816
0.0281944
0.0281987
0.0282019
0.0282045
0.0282083
0.0282116
0.0282138
0.028214
0.0282139
0.028215
0.028217
0.0282181
0.0282184
0.0282189
0.0282195
0.0282189
0.0282176
0.0282165
0.0282158
0.0282152
0.0282142
0.0282124
0.0282099
0.0282073
0.0282051
0.0282035
0.0282009
0.0281956
0.02818
0.0200087
0.0200358
0.0200499
0.0200553
0.0200576
0.0200596
0.0200617
0.0200632
0.0200639
0.0200642
0.020065
0.0200659
0.0200663
0.0200666
0.020067
0.0200671
0.0200667
0.020066
0.0200654
0.0200648
0.0200644
0.0200638
0.0200627
0.0200612
0.0200594
0.0200576
0.0200556
0.0200504
0.0200361
0.0200081
0.0155275
0.0155584
0.0155762
0.0155828
0.015585
0.0155864
0.0155878
0.0155887
0.0155893
0.0155898
0.0155904
0.0155909
0.0155913
0.0155916
0.0155919
0.015592
0.0155917
0.0155913
0.0155909
0.0155906
0.0155904
0.0155899
0.0155891
0.015588
0.0155866
0.0155851
0.0155826
0.0155757
0.0155577
0.0155272
0.0127117
0.0127422
0.0127603
0.012767
0.0127692
0.0127704
0.0127712
0.0127719
0.0127723
0.0127729
0.0127734
0.0127739
0.0127742
0.0127745
0.0127746
0.0127746
0.0127744
0.0127741
0.0127739
0.0127738
0.0127736
0.0127733
0.0127728
0.012772
0.012771
0.0127697
0.012767
0.0127598
0.0127413
0.0127113
0.0107827
0.0108118
0.0108293
0.0108359
0.0108381
0.010839
0.0108395
0.0108399
0.0108404
0.0108409
0.0108414
0.0108417
0.010842
0.0108421
0.0108422
0.010842
0.0108417
0.0108415
0.0108414
0.0108413
0.0108412
0.0108411
0.0108408
0.0108403
0.0108396
0.0108385
0.0108361
0.0108291
0.0108112
0.0107822
0.00938049
0.00940858
0.00942503
0.00943144
0.00943359
0.00943436
0.00943468
0.00943489
0.00943522
0.00943558
0.00943587
0.00943604
0.00943618
0.00943627
0.00943619
0.00943596
0.00943571
0.00943554
0.00943549
0.0094355
0.0094355
0.00943546
0.00943534
0.00943503
0.00943455
0.0094337
0.00943149
0.00942483
0.00940788
0.00937985
0.00831672
0.008344
0.00835937
0.00836546
0.0083675
0.0083681
0.00836823
0.00836829
0.00836843
0.00836859
0.00836868
0.00836872
0.0083688
0.00836886
0.00836876
0.00836856
0.00836838
0.0083683
0.00836834
0.00836839
0.00836842
0.00836844
0.00836838
0.00836818
0.00836787
0.00836723
0.00836521
0.00835892
0.00834302
0.00831592
0.00748293
0.00750958
0.00752388
0.00752955
0.00753141
0.00753188
0.00753188
0.00753184
0.00753185
0.00753185
0.0075318
0.00753178
0.00753185
0.00753191
0.00753186
0.00753174
0.00753166
0.00753168
0.00753176
0.00753182
0.00753184
0.00753185
0.00753181
0.0075317
0.00753153
0.00753103
0.00752917
0.00752328
0.00750845
0.0074821
0.00681231
0.00683847
0.00685177
0.006857
0.00685871
0.0068591
0.00685907
0.00685898
0.00685891
0.00685881
0.00685869
0.00685864
0.00685871
0.00685879
0.00685879
0.00685876
0.00685875
0.00685882
0.0068589
0.00685892
0.00685891
0.00685892
0.00685891
0.00685889
0.00685881
0.0068584
0.0068567
0.00685126
0.00683739
0.00681154
0.00626154
0.00628739
0.00629987
0.00630468
0.00630623
0.00630656
0.00630651
0.00630639
0.00630628
0.00630613
0.00630599
0.00630595
0.00630601
0.00630609
0.00630613
0.00630613
0.00630616
0.00630623
0.00630627
0.00630625
0.00630622
0.00630624
0.00630628
0.00630632
0.0063063
0.00630597
0.00630444
0.00629941
0.00628634
0.0062608
0.0058014
0.00582713
0.00583889
0.00584331
0.00584467
0.00584493
0.00584484
0.00584471
0.00584459
0.00584445
0.00584433
0.0058443
0.00584434
0.00584441
0.00584443
0.00584445
0.00584448
0.00584452
0.00584453
0.00584448
0.00584446
0.0058445
0.00584457
0.00584464
0.00584467
0.00584441
0.00584304
0.00583836
0.00582592
0.00580059
0.00541138
0.0054371
0.00544824
0.00545225
0.00545342
0.00545361
0.0054535
0.00545337
0.00545326
0.00545315
0.00545306
0.00545302
0.00545304
0.00545308
0.0054531
0.00545312
0.00545315
0.00545317
0.00545316
0.00545311
0.00545311
0.00545317
0.00545325
0.00545335
0.00545343
0.00545325
0.00545202
0.00544761
0.00543566
0.00541047
0.00507664
0.00510239
0.005113
0.00511667
0.0051177
0.00511782
0.00511772
0.0051176
0.0051175
0.00511741
0.00511732
0.00511727
0.00511727
0.00511729
0.00511731
0.00511734
0.00511736
0.00511737
0.00511734
0.00511731
0.00511734
0.00511741
0.0051175
0.00511762
0.00511775
0.00511764
0.00511651
0.00511232
0.00510077
0.00507563
0.00478616
0.00481199
0.00482221
0.00482562
0.00482654
0.00482663
0.00482652
0.00482639
0.00482629
0.00482619
0.00482609
0.00482603
0.00482601
0.00482603
0.00482606
0.00482608
0.00482608
0.00482607
0.00482604
0.00482604
0.00482609
0.00482618
0.00482628
0.00482643
0.0048266
0.00482652
0.00482547
0.0048215
0.00481028
0.00478511
0.00453171
0.00455766
0.0045676
0.00457082
0.00457166
0.00457172
0.00457157
0.00457142
0.0045713
0.00457118
0.00457107
0.004571
0.00457099
0.00457101
0.00457103
0.00457103
0.00457102
0.004571
0.00457099
0.00457102
0.0045711
0.00457122
0.00457134
0.00457149
0.00457166
0.00457159
0.00457062
0.00456686
0.0045559
0.00453067
0.00430701
0.00433313
0.00434286
0.00434592
0.00434666
0.00434666
0.00434648
0.0043463
0.00434616
0.00434605
0.00434594
0.00434588
0.00434588
0.00434589
0.0043459
0.0043459
0.00434589
0.00434589
0.00434589
0.00434593
0.00434603
0.00434616
0.00434629
0.00434644
0.00434658
0.00434652
0.00434564
0.00434206
0.00433131
0.00430602
0.00410718
0.0041335
0.00414307
0.00414596
0.00414658
0.00414651
0.0041463
0.00414612
0.004146
0.0041459
0.00414582
0.00414577
0.00414577
0.00414577
0.00414578
0.00414577
0.00414576
0.00414576
0.00414578
0.00414582
0.00414591
0.00414604
0.00414618
0.00414633
0.00414646
0.00414643
0.00414563
0.0041422
0.00413164
0.00410629
0.00392839
0.00395493
0.00396434
0.00396705
0.00396755
0.00396744
0.00396722
0.00396706
0.00396696
0.00396688
0.0039668
0.00396675
0.00396674
0.00396673
0.00396672
0.0039667
0.00396669
0.0039667
0.00396672
0.00396676
0.00396684
0.00396697
0.00396712
0.00396727
0.00396742
0.00396743
0.0039667
0.00396342
0.00395303
0.00392759
0.00376755
0.00379429
0.00380356
0.0038061
0.00380651
0.00380637
0.00380615
0.00380599
0.00380589
0.00380581
0.00380574
0.00380569
0.00380567
0.00380564
0.00380561
0.00380558
0.00380558
0.0038056
0.00380563
0.00380567
0.00380575
0.00380587
0.00380602
0.00380618
0.00380635
0.00380639
0.00380573
0.0038026
0.00379235
0.00376678
0.00362212
0.00364904
0.00365821
0.00366061
0.00366094
0.00366076
0.00366054
0.00366037
0.00366027
0.00366019
0.00366013
0.00366009
0.00366005
0.00366
0.00365994
0.00365991
0.00365992
0.00365995
0.00366
0.00366006
0.00366014
0.00366025
0.00366039
0.00366056
0.00366075
0.00366083
0.00366025
0.00365723
0.00364707
0.00362138
0.00349004
0.00351716
0.00352624
0.00352853
0.00352878
0.00352856
0.00352832
0.00352816
0.00352806
0.003528
0.00352794
0.0035279
0.00352784
0.00352776
0.00352768
0.00352765
0.00352768
0.00352774
0.0035278
0.00352788
0.00352795
0.00352804
0.00352818
0.00352836
0.00352858
0.00352871
0.00352821
0.00352528
0.00351517
0.00348935
0.00336969
0.003397
0.00340602
0.00340821
0.00340837
0.00340812
0.00340787
0.0034077
0.0034076
0.00340754
0.00340748
0.00340742
0.00340735
0.00340725
0.00340717
0.00340717
0.00340721
0.00340728
0.00340736
0.00340743
0.0034075
0.00340758
0.00340772
0.00340791
0.00340815
0.00340832
0.0034079
0.00340507
0.00339501
0.00336907
0.00325981
0.00328731
0.00329626
0.00329832
0.00329839
0.00329809
0.00329783
0.00329765
0.00329755
0.00329747
0.0032974
0.00329734
0.00329725
0.00329716
0.0032971
0.0032971
0.00329716
0.00329723
0.0032973
0.00329738
0.00329745
0.00329754
0.00329767
0.00329786
0.00329811
0.00329833
0.003298
0.00329529
0.00328531
0.00325926
0.00315953
0.00318712
0.00319591
0.00319781
0.00319778
0.00319744
0.00319715
0.00319696
0.00319684
0.00319676
0.00319669
0.00319663
0.00319656
0.00319648
0.00319642
0.00319643
0.00319648
0.00319655
0.00319663
0.00319671
0.00319678
0.00319686
0.00319697
0.00319715
0.00319743
0.00319771
0.00319748
0.00319493
0.00318509
0.003159
0.00306849
0.00309591
0.00310431
0.00310593
0.00310577
0.00310538
0.00310508
0.00310488
0.00310475
0.00310468
0.00310463
0.00310458
0.00310451
0.00310443
0.00310439
0.00310439
0.00310445
0.00310452
0.00310459
0.00310466
0.00310472
0.00310478
0.00310488
0.00310506
0.00310535
0.00310568
0.0031056
0.0031033
0.00309382
0.00306793
0.00298729
0.00301377
0.00302115
0.0030222
0.00302182
0.00302138
0.00302109
0.00302091
0.00302081
0.00302076
0.00302072
0.00302068
0.00302061
0.00302055
0.00302052
0.00302053
0.00302057
0.00302063
0.00302068
0.00302073
0.00302077
0.00302082
0.00302091
0.00302107
0.00302135
0.00302172
0.00302184
0.00302008
0.00301152
0.0029865
0.0029179
0.00294148
0.00294654
0.00294651
0.0029458
0.00294532
0.00294508
0.00294497
0.00294491
0.00294488
0.00294487
0.00294485
0.0029448
0.00294475
0.00294472
0.00294472
0.00294476
0.0029448
0.00294483
0.00294487
0.00294489
0.00294492
0.00294496
0.00294506
0.00294528
0.00294569
0.00294613
0.00294537
0.00293887
0.00291632
0.00286188
0.00287976
0.00288158
0.00288034
0.00287936
0.00287891
0.00287877
0.00287874
0.00287873
0.00287875
0.00287877
0.00287877
0.00287874
0.00287869
0.00287867
0.00287867
0.00287869
0.00287872
0.00287874
0.00287876
0.00287876
0.00287874
0.00287873
0.00287874
0.00287888
0.00287927
0.00287998
0.00288035
0.00287673
0.00285858
0.0732856
0.0732311
0.0731831
0.0731551
0.0731393
0.0731329
0.0731341
0.0731347
0.0731239
0.0731073
0.0730902
0.0730804
0.073075
0.0730718
0.0730688
0.0730649
0.0730632
0.0730673
0.0730782
0.073093
0.0731073
0.0731181
0.0731264
0.073133
0.0731406
0.0731514
0.073163
0.0731795
0.0732147
0.0732719
0.0449813
0.0449421
0.0449122
0.0449068
0.0449132
0.0449258
0.0449377