/*--------------------------------*- C++ -*----------------------------------*\
| =========                 |                                                 |
| \\      /  F ield         | OpenFOAM: The Open Source CFD Toolbox           |
|  \\    /   O peration     | Version:  2506                                  |
|   \\  /    A nd           | Website:  www.openfoam.com                      |
|    \\/     M anipulation  |                                                 |
\*---------------------------------------------------------------------------*/
FoamFile
{
    version     2.0;
    format      ascii;
    arch        "LSB;label=32;scalar=64";
    class       volScalarField;
    location    "10";
    object      k;
}
// * * * * * * * * * * * * * * * * * * * * * * * * * * * * * * * * * * * * * //

dimensions      [0 2 -2 0 0 0 0];

internalField   nonuniform List<scalar> 
144676
(
0.275851
0.275853
0.275856
0.275857
0.275852
0.275849
0.275845
0.275846
0.275844
0.275835
0.275818
0.275813
0.27582
0.275831
0.27583
0.275825
0.275828
0.275832
0.275828
0.275822
0.275826
0.275836
0.27584
0.275839
0.275835
0.275834
0.275839
0.275845
0.275844
0.275843
0.320255
0.320232
0.320245
0.320256
0.320261
0.320266
0.320271
0.320272
0.320269
0.32026
0.320259
0.320267
0.320279
0.320281
0.320277
0.320277
0.320279
0.320275
0.320267
0.320267
0.320271
0.32027
0.320264
0.320257
0.320251
0.320249
0.32025
0.320244
0.320237
0.320255
0.318591
0.318589
0.318598
0.318609
0.318616
0.318619
0.318622
0.318626
0.318627
0.318627
0.31863
0.318637
0.318642
0.318641
0.318641
0.318642
0.318642
0.318637
0.318633
0.318631
0.31863
0.318627
0.318623
0.318619
0.318615
0.318613
0.31861
0.318604
0.318597
0.318594
0.317997
0.318014
0.318032
0.318044
0.318049
0.318051
0.318054
0.318058
0.318061
0.318063
0.318067
0.318072
0.318073
0.318073
0.318074
0.318075
0.318073
0.318069
0.318066
0.318064
0.318062
0.31806
0.318059
0.318056
0.318053
0.318049
0.318045
0.318038
0.318022
0.318001
0.317821
0.317859
0.31789
0.317904
0.317908
0.317909
0.317911
0.317915
0.317918
0.317921
0.317924
0.317927
0.317928
0.317928
0.317929
0.317929
0.317927
0.317925
0.317923
0.317921
0.31792
0.317919
0.317918
0.317915
0.317912
0.317907
0.317902
0.317889
0.31786
0.317823
0.317751
0.317803
0.317842
0.317858
0.317862
0.317863
0.317866
0.317868
0.31787
0.317872
0.317875
0.317878
0.317879
0.317881
0.317882
0.317881
0.31788
0.317878
0.317877
0.317875
0.317875
0.317874
0.317872
0.317869
0.317866
0.317861
0.317855
0.317837
0.317798
0.31775
0.317729
0.317788
0.317832
0.317851
0.317856
0.317858
0.31786
0.317861
0.317863
0.317865
0.317869
0.317872
0.317874
0.317875
0.317876
0.317875
0.317873
0.317871
0.31787
0.317869
0.317868
0.317866
0.317865
0.317863
0.31786
0.317856
0.31785
0.317829
0.317784
0.317727
0.317731
0.317792
0.31784
0.317861
0.317869
0.317872
0.317874
0.317874
0.317875
0.317878
0.317882
0.317884
0.317885
0.317887
0.317887
0.317885
0.317883
0.317881
0.31788
0.317879
0.317877
0.317876
0.317875
0.317874
0.317872
0.317869
0.317862
0.31784
0.317791
0.317729
0.317744
0.317807
0.317857
0.31788
0.317889
0.317893
0.317894
0.317894
0.317895
0.317897
0.317899
0.317901
0.317902
0.317903
0.317903
0.317901
0.317899
0.317897
0.317896
0.317895
0.317894
0.317893
0.317893
0.317892
0.31789
0.317888
0.317881
0.317857
0.317807
0.317742
0.317765
0.317827
0.317876
0.3179
0.31791
0.317914
0.317914
0.317913
0.317913
0.317914
0.317915
0.317916
0.317917
0.317918
0.317919
0.317917
0.317916
0.317915
0.317915
0.317914
0.317913
0.317912
0.317912
0.31791
0.317909
0.317907
0.317899
0.317876
0.317826
0.317763
0.317789
0.317847
0.317894
0.317917
0.317926
0.31793
0.31793
0.317929
0.317929
0.317929
0.317929
0.31793
0.317931
0.317933
0.317933
0.317933
0.317932
0.317932
0.317932
0.317931
0.31793
0.317929
0.317928
0.317927
0.317925
0.317924
0.317916
0.317894
0.317847
0.317788
0.317814
0.317865
0.317908
0.31793
0.317939
0.317942
0.317942
0.317941
0.317941
0.317941
0.317941
0.317941
0.317943
0.317945
0.317945
0.317945
0.317945
0.317945
0.317945
0.317944
0.317942
0.317941
0.31794
0.317939
0.317939
0.317937
0.31793
0.31791
0.317867
0.317813
0.317836
0.317881
0.31792
0.31794
0.317947
0.31795
0.31795
0.31795
0.31795
0.31795
0.31795
0.31795
0.317952
0.317953
0.317954
0.317954
0.317954
0.317954
0.317953
0.317952
0.31795
0.317949
0.317949
0.317948
0.317948
0.317946
0.31794
0.317922
0.317883
0.317835
0.317857
0.317896
0.31793
0.317947
0.317953
0.317955
0.317955
0.317955
0.317955
0.317955
0.317955
0.317956
0.317957
0.317958
0.317959
0.317958
0.317958
0.317958
0.317957
0.317956
0.317954
0.317954
0.317954
0.317953
0.317953
0.317952
0.317947
0.317932
0.317897
0.317855
0.317877
0.31791
0.317938
0.317951
0.317956
0.317956
0.317956
0.317956
0.317957
0.317957
0.317958
0.317959
0.317959
0.31796
0.31796
0.31796
0.317959
0.317959
0.317958
0.317957
0.317956
0.317956
0.317956
0.317956
0.317955
0.317955
0.317952
0.317939
0.317909
0.317874
0.317895
0.317921
0.317943
0.317953
0.317956
0.317956
0.317956
0.317956
0.317956
0.317957
0.317958
0.317958
0.317958
0.317958
0.317958
0.317958
0.317958
0.317958
0.317957
0.317956
0.317955
0.317956
0.317956
0.317956
0.317956
0.317956
0.317954
0.317943
0.317918
0.317891
0.31791
0.317927
0.317944
0.317951
0.317954
0.317954
0.317954
0.317954
0.317954
0.317954
0.317954
0.317954
0.317954
0.317954
0.317954
0.317954
0.317954
0.317953
0.317953
0.317952
0.317952
0.317953
0.317953
0.317953
0.317954
0.317954
0.317953
0.317945
0.317926
0.317904
0.317921
0.317931
0.317943
0.317949
0.31795
0.31795
0.31795
0.317949
0.317948
0.317948
0.317948
0.317948
0.317948
0.317948
0.317948
0.317948
0.317948
0.317947
0.317947
0.317947
0.317947
0.317948
0.317949
0.317949
0.31795
0.31795
0.31795
0.317944
0.31793
0.317915
0.317929
0.317933
0.317941
0.317945
0.317945
0.317944
0.317943
0.317941
0.317941
0.317941
0.31794
0.31794
0.317941
0.317941
0.317941
0.317941
0.317941
0.317941
0.317941
0.317941
0.317941
0.317942
0.317943
0.317943
0.317944
0.317944
0.317945
0.317942
0.317932
0.317924
0.317937
0.317935
0.317939
0.31794
0.317939
0.317937
0.317935
0.317933
0.317933
0.317933
0.317933
0.317933
0.317933
0.317934
0.317934
0.317934
0.317934
0.317934
0.317933
0.317933
0.317934
0.317935
0.317936
0.317936
0.317937
0.317938
0.317939
0.317938
0.317933
0.317932
0.317944
0.317937
0.317937
0.317935
0.317932
0.31793
0.317927
0.317926
0.317926
0.317926
0.317926
0.317926
0.317926
0.317926
0.317926
0.317926
0.317926
0.317926
0.317926
0.317925
0.317926
0.317927
0.317928
0.317929
0.31793
0.317932
0.317934
0.317935
0.317934
0.317939
0.317951
0.317939
0.317935
0.317931
0.317927
0.317923
0.317921
0.31792
0.317919
0.317919
0.317919
0.317919
0.317919
0.317919
0.317919
0.317918
0.317918
0.317918
0.317918
0.317918
0.317919
0.31792
0.31792
0.317922
0.317923
0.317926
0.317929
0.317932
0.317936
0.317946
0.317959
0.317942
0.317934
0.317927
0.317922
0.317918
0.317915
0.317914
0.317913
0.317913
0.317913
0.317913
0.317913
0.317913
0.317912
0.317912
0.317912
0.317912
0.317912
0.317913
0.317913
0.317914
0.317914
0.317916
0.317918
0.317922
0.317926
0.317932
0.317939
0.317953
0.317966
0.317945
0.317933
0.317925
0.317918
0.317914
0.317911
0.31791
0.317909
0.317909
0.317909
0.317909
0.317909
0.317908
0.317907
0.317907
0.317907
0.317907
0.317908
0.317909
0.317909
0.317909
0.31791
0.317912
0.317915
0.317919
0.317925
0.317933
0.317943
0.317961
0.317977
0.317952
0.317936
0.317925
0.317918
0.317913
0.31791
0.317908
0.317908
0.317908
0.317907
0.317907
0.317907
0.317906
0.317905
0.317905
0.317905
0.317906
0.317907
0.317907
0.317907
0.317908
0.317909
0.31791
0.317913
0.317918
0.317926
0.317936
0.31795
0.317971
0.317993
0.317965
0.317946
0.317932
0.317923
0.317918
0.317914
0.317913
0.317912
0.317911
0.317911
0.31791
0.31791
0.317909
0.317909
0.317909
0.317909
0.31791
0.31791
0.317911
0.317911
0.317912
0.317912
0.317914
0.317917
0.317923
0.317932
0.317945
0.317963
0.317988
0.318023
0.317991
0.317967
0.31795
0.317939
0.317933
0.317929
0.317927
0.317926
0.317925
0.317925
0.317925
0.317925
0.317924
0.317924
0.317924
0.317924
0.317925
0.317926
0.317926
0.317926
0.317926
0.317927
0.317928
0.317932
0.317939
0.317949
0.317966
0.317989
0.318018
0.318079
0.318041
0.318008
0.317986
0.317973
0.317966
0.317962
0.31796
0.317959
0.317958
0.317958
0.317958
0.317958
0.317957
0.317957
0.317957
0.317958
0.317959
0.317959
0.317959
0.317959
0.317959
0.317959
0.317961
0.317965
0.317972
0.317985
0.318008
0.318039
0.318075
0.318176
0.318122
0.318073
0.318041
0.318024
0.318016
0.318013
0.318012
0.318011
0.318011
0.318011
0.318011
0.31801
0.31801
0.31801
0.31801
0.318011
0.318011
0.318011
0.318011
0.318011
0.318011
0.318011
0.318012
0.318016
0.318023
0.31804
0.318072
0.318121
0.318173
0.31831
0.318221
0.318146
0.318103
0.318083
0.318075
0.318073
0.318072
0.318072
0.318072
0.318072
0.318072
0.318072
0.318072
0.318072
0.318072
0.318072
0.318072
0.318072
0.318073
0.318072
0.318072
0.318071
0.318072
0.318074
0.318082
0.318102
0.318146
0.318221
0.318309
0.243352
0.243393
0.24339
0.243369
0.243349
0.243337
0.243329
0.243327
0.243313
0.243287
0.243263
0.243263
0.243281
0.24329
0.243283
0.243281
0.243288
0.243288
0.243279
0.243281
0.243298
0.243312
0.243314
0.243312
0.24331
0.243319
0.243339
0.243361
0.243372
0.243339
0.320292
0.320272
0.320282
0.320297
0.320308
0.320322
0.320336
0.320339
0.320328
0.32031
0.320308
0.320324
0.32034
0.32034
0.320337
0.32034
0.320342
0.320333
0.320326
0.32033
0.320336
0.320333
0.320324
0.32031
0.320298
0.320294
0.320292
0.320283
0.320271
0.320284
0.31874
0.318757
0.318777
0.318793
0.318803
0.318812
0.318821
0.318827
0.318825
0.31882
0.318824
0.318834
0.318839
0.318838
0.318839
0.318843
0.318841
0.318834
0.318829
0.318828
0.318827
0.318824
0.318819
0.318811
0.318804
0.318799
0.318795
0.318786
0.318768
0.318743
0.317359
0.317442
0.3175
0.317527
0.317535
0.317541
0.317548
0.317554
0.317556
0.317557
0.317561
0.317566
0.317567
0.317566
0.317569
0.31757
0.317567
0.317562
0.317559
0.317556
0.317555
0.317554
0.317551
0.317545
0.317539
0.317532
0.317526
0.317504
0.317449
0.317362
0.316746
0.316882
0.316976
0.317014
0.317024
0.317027
0.317033
0.317038
0.31704
0.317042
0.317046
0.317049
0.317049
0.317051
0.317053
0.317053
0.317051
0.317048
0.317046
0.317044
0.317044
0.317044
0.317041
0.317036
0.317028
0.317021
0.317009
0.31697
0.316876
0.316744
0.316423
0.316584
0.316701
0.316746
0.316758
0.316762
0.316766
0.316768
0.31677
0.316773
0.316778
0.316782
0.316784
0.316786
0.316788
0.316787
0.316784
0.316782
0.316781
0.31678
0.31678
0.31678
0.316778
0.316773
0.316766
0.316759
0.316743
0.316692
0.316574
0.316416
0.316255
0.316424
0.316552
0.316604
0.316619
0.316624
0.316626
0.316628
0.31663
0.316635
0.31664
0.316644
0.316646
0.316648
0.316648
0.316646
0.316642
0.31664
0.316639
0.316638
0.316639
0.316639
0.316638
0.316635
0.31663
0.316624
0.316605
0.316548
0.316417
0.316247
0.316173
0.31634
0.316473
0.316529
0.316548
0.316554
0.316555
0.316555
0.316557
0.316562
0.316566
0.316569
0.31657
0.316571
0.31657
0.316566
0.316562
0.316559
0.316558
0.316558
0.316559
0.31656
0.316561
0.31656
0.316556
0.316551
0.316532
0.316472
0.316337
0.316165
0.316142
0.316301
0.316431
0.31649
0.316511
0.316517
0.316516
0.316514
0.316515
0.316517
0.316519
0.31652
0.316521
0.316521
0.31652
0.316516
0.316512
0.31651
0.31651
0.316511
0.316512
0.316513
0.316515
0.316514
0.316512
0.316508
0.316488
0.316429
0.316297
0.316134
0.316142
0.316286
0.316407
0.316464
0.316485
0.316489
0.316487
0.316484
0.316483
0.316483
0.316482
0.316482
0.316483
0.316484
0.316483
0.316481
0.316478
0.316478
0.316479
0.31648
0.316481
0.316482
0.316483
0.316482
0.316481
0.316477
0.316459
0.316403
0.316281
0.316133
0.316156
0.316279
0.316388
0.31644
0.316459
0.316463
0.316461
0.316457
0.316455
0.316453
0.316451
0.31645
0.316452
0.316454
0.316454
0.316453
0.316452
0.316453
0.316455
0.316455
0.316455
0.316455
0.316456
0.316455
0.316455
0.316452
0.316436
0.316386
0.316277
0.31615
0.316175
0.316275
0.316368
0.316414
0.316431
0.316435
0.316432
0.316429
0.316426
0.316424
0.316421
0.316421
0.316422
0.316425
0.316426
0.316426
0.316426
0.316427
0.316428
0.316427
0.316426
0.316427
0.316427
0.316427
0.316428
0.316425
0.316412
0.31637
0.316277
0.316171
0.316196
0.316272
0.316348
0.316386
0.3164
0.316402
0.3164
0.316397
0.316394
0.316392
0.31639
0.31639
0.316392
0.316394
0.316395
0.316395
0.316395
0.316396
0.316396
0.316394
0.316393
0.316394
0.316394
0.316395
0.316396
0.316394
0.316385
0.316351
0.316274
0.316191
0.316217
0.316271
0.316328
0.316356
0.316365
0.316366
0.316364
0.316361
0.316359
0.316358
0.316357
0.316357
0.316358
0.316359
0.31636
0.31636
0.31636
0.316361
0.31636
0.316358
0.316357
0.316358
0.316358
0.316359
0.316361
0.316361
0.316355
0.316329
0.316269
0.316209
0.316236
0.316267
0.316305
0.316323
0.316328
0.316327
0.316324
0.316322
0.316321
0.316321
0.31632
0.31632
0.31632
0.316321
0.316321
0.316321
0.316322
0.316322
0.316321
0.316319
0.316319
0.31632
0.31632
0.316321
0.316324
0.316327
0.316324
0.316306
0.316262
0.316225
0.31625
0.316258
0.316278
0.316287
0.316288
0.316286
0.316284
0.316282
0.316281
0.316281
0.31628
0.316279
0.316279
0.316279
0.31628
0.31628
0.31628
0.31628
0.316278
0.316277
0.316277
0.316279
0.31628
0.316281
0.316285
0.31629
0.31629
0.316279
0.316252
0.316236
0.316257
0.316243
0.316247
0.316249
0.316247
0.316245
0.316242
0.316239
0.316238
0.316237
0.316235
0.316234
0.316234
0.316234
0.316235
0.316235
0.316234
0.316233
0.316232
0.316232
0.316233
0.316235
0.316237
0.316239
0.316243
0.316248
0.316251
0.316248
0.316237
0.316242
0.316258
0.316223
0.316214
0.316209
0.316205
0.3162
0.316196
0.316193
0.316191
0.316189
0.316187
0.316186
0.316186
0.316187
0.316187
0.316187
0.316187
0.316186
0.316186
0.316186
0.316188
0.31619
0.316192
0.316195
0.316198
0.316203
0.316209
0.316214
0.316218
0.316242
0.316255
0.316202
0.31618
0.316168
0.31616
0.316153
0.316147
0.316143
0.316141
0.31614
0.316139
0.316138
0.316138
0.316139
0.31614
0.31614
0.316139
0.316139
0.316139
0.316139
0.316141
0.316143
0.316146
0.316148
0.316151
0.316157
0.316166
0.316179
0.316197
0.31624
0.31625
0.316181
0.316147
0.316127
0.316115
0.316105
0.316099
0.316095
0.316094
0.316093
0.316092
0.316091
0.316092
0.316092
0.316093
0.316093
0.316092
0.316092
0.316092
0.316092
0.316093
0.316095
0.316098
0.316101
0.316105
0.316112
0.316124
0.316144
0.316176
0.316237
0.316247
0.316163
0.316116
0.316088
0.316071
0.316061
0.316054
0.316051
0.316049
0.316048
0.316048
0.316047
0.316047
0.316047
0.316047
0.316047
0.316046
0.316046
0.316046
0.316046
0.316047
0.316049
0.316052
0.316055
0.316061
0.31607
0.316084
0.316111
0.316156
0.316233
0.316245
0.316147
0.316087
0.316052
0.316033
0.316021
0.316013
0.31601
0.316008
0.316007
0.316007
0.316006
0.316006
0.316006
0.316005
0.316004
0.316003
0.316004
0.316004
0.316005
0.316006
0.316007
0.31601
0.316014
0.316021
0.316031
0.316049
0.316082
0.316139
0.31623
0.316245
0.316133
0.316063
0.316022
0.315998
0.315985
0.315977
0.315973
0.315971
0.315971
0.315971
0.315971
0.31597
0.315969
0.315967
0.315966
0.315966
0.315967
0.315968
0.315969
0.31597
0.315971
0.315974
0.315979
0.315986
0.315998
0.31602
0.31606
0.316126
0.316229
0.316249
0.316125
0.316045
0.315998
0.315971
0.315956
0.315948
0.315944
0.315942
0.315942
0.315942
0.315941
0.31594
0.315938
0.315936
0.315936
0.315937
0.315938
0.315939
0.31594
0.315941
0.315942
0.315945
0.31595
0.315958
0.315973
0.315998
0.316044
0.31612
0.316234
0.316265
0.31613
0.31604
0.315986
0.315955
0.315939
0.31593
0.315926
0.315924
0.315923
0.315923
0.315922
0.31592
0.315918
0.315917
0.315917
0.315918
0.315919
0.315921
0.315922
0.315923
0.315924
0.315926
0.315931
0.315941
0.315957
0.315986
0.316039
0.316125
0.316251
0.316305
0.316158
0.316057
0.315995
0.31596
0.315941
0.315932
0.315927
0.315924
0.315923
0.315922
0.315922
0.31592
0.315919
0.315917
0.315917
0.315919
0.31592
0.315922
0.315923
0.315924
0.315925
0.315927
0.315932
0.315942
0.31596
0.315994
0.316055
0.316153
0.316291
0.316396
0.316234
0.316116
0.316042
0.316002
0.315981
0.31597
0.315965
0.315962
0.315961
0.315961
0.31596
0.315959
0.315958
0.315956
0.315957
0.315958
0.31596
0.315961
0.315962
0.315962
0.315963
0.315964
0.315969
0.31598
0.316001
0.316042
0.316114
0.31623
0.316383
0.316588
0.316399
0.31625
0.316158
0.316109
0.316085
0.316074
0.316069
0.316067
0.316066
0.316067
0.316066
0.316065
0.316064
0.316063
0.316064
0.316065
0.316066
0.316067
0.316067
0.316067
0.316067
0.316069
0.316073
0.316084
0.316108
0.316157
0.316249
0.316396
0.316578
0.316946
0.316697
0.31649
0.316366
0.316305
0.316278
0.316268
0.316265
0.316264
0.316264
0.316264
0.316264
0.316263
0.316262
0.316262
0.316262
0.316263
0.316264
0.316264
0.316264
0.316264
0.316263
0.316263
0.316267
0.316277
0.316304
0.316365
0.31649
0.316697
0.316941
0.317427
0.317073
0.316788
0.316629
0.316559
0.316532
0.316525
0.316523
0.316523
0.316524
0.316525
0.316526
0.316525
0.316525
0.316524
0.316524
0.316525
0.316525
0.316526
0.316525
0.316524
0.316522
0.316521
0.316522
0.316531
0.316558
0.31663
0.31679
0.317077
0.317428
0.219584
0.219685
0.219665
0.219618
0.219583
0.21956
0.219553
0.219548
0.219527
0.219488
0.21946
0.219461
0.219478
0.219481
0.219474
0.219473
0.219479
0.219479
0.219479
0.219494
0.219515
0.21953
0.219536
0.219538
0.219543
0.219565
0.219594
0.21963
0.219646
0.219559
0.319216
0.319178
0.319127
0.319118
0.319131
0.319163
0.319193
0.319202
0.319187
0.319165
0.319163
0.319182
0.319198
0.319199
0.319198
0.319203
0.319204
0.319197
0.319194
0.319198
0.319201
0.319197
0.319183
0.319162
0.319144
0.319131
0.319126
0.319129
0.319163
0.319189
0.318566
0.318613
0.318608
0.318611
0.31862
0.318641
0.318659
0.318669
0.318664
0.318658
0.318662
0.318672
0.318678
0.318679
0.318682
0.318686
0.318684
0.318677
0.318673
0.31867
0.318669
0.318665
0.318656
0.318643
0.318629
0.31862
0.318618
0.318618
0.318617
0.318556
0.316323
0.3165
0.31659
0.316621
0.316635
0.316648
0.316664
0.316673
0.316675
0.316674
0.316679
0.316684
0.316686
0.316688
0.316691
0.316693
0.31669
0.316685
0.316681
0.316678
0.316676
0.316674
0.316666
0.316655
0.316642
0.316632
0.316622
0.316591
0.316502
0.316316
0.315064
0.315314
0.31547
0.315527
0.315545
0.315557
0.315569
0.315577
0.315581
0.315583
0.315588
0.315592
0.315595
0.315598
0.315601
0.315602
0.3156
0.315597
0.315593
0.315591
0.31559
0.315588
0.315581
0.31557
0.315557
0.315544
0.315523
0.315462
0.315306
0.315055
0.314352
0.314622
0.314806
0.314877
0.314899
0.314911
0.314919
0.314925
0.314929
0.314935
0.314941
0.314946
0.31495
0.314954
0.314956
0.314956
0.314953
0.31495
0.314948
0.314947
0.314947
0.314945
0.31494
0.314931
0.314919
0.314905
0.314876
0.314798
0.314611
0.314341
0.313967
0.314225
0.314417
0.314495
0.314522
0.314532
0.314538
0.314542
0.314547
0.314555
0.314561
0.314566
0.314569
0.314572
0.314572
0.314569
0.314565
0.314562
0.31456
0.31456
0.314561
0.314561
0.314558
0.314552
0.314543
0.31453
0.314499
0.314415
0.314219
0.313955
0.313771
0.314004
0.314189
0.314269
0.314298
0.314307
0.31431
0.314312
0.314317
0.314322
0.314327
0.314329
0.314331
0.314332
0.31433
0.314325
0.31432
0.314317
0.314317
0.314319
0.31432
0.314322
0.314321
0.314318
0.314311
0.3143
0.314271
0.314188
0.314
0.313759
0.313687
0.313886
0.314052
0.314129
0.314156
0.314164
0.314164
0.314163
0.314165
0.314167
0.314168
0.314168
0.314169
0.31417
0.314167
0.314163
0.314158
0.314157
0.314158
0.314161
0.314163
0.314165
0.314165
0.314163
0.314159
0.31415
0.314124
0.314048
0.31388
0.313675
0.313668
0.313824
0.313963
0.31403
0.314054
0.314059
0.314057
0.314054
0.314053
0.314053
0.31405
0.314049
0.314051
0.314052
0.31405
0.314047
0.314045
0.314046
0.314048
0.31405
0.314052
0.314053
0.314054
0.314053
0.314051
0.314045
0.314022
0.313957
0.313817
0.313656
0.313679
0.313789
0.313895
0.313949
0.31397
0.313973
0.31397
0.313967
0.313964
0.31396
0.313956
0.313955
0.313957
0.313959
0.313959
0.313958
0.313958
0.313959
0.313962
0.313963
0.313963
0.313964
0.313965
0.313965
0.313965
0.313962
0.313944
0.313892
0.313787
0.313671
0.313703
0.313765
0.313839
0.313878
0.313893
0.313895
0.313892
0.313888
0.313884
0.313879
0.313875
0.313873
0.313875
0.313878
0.313879
0.313879
0.31388
0.313882
0.313883
0.313883
0.313882
0.313883
0.313885
0.313886
0.313887
0.313886
0.313874
0.313839
0.313768
0.313697
0.313732
0.313749
0.313788
0.313811
0.313819
0.313819
0.313814
0.31381
0.313806
0.313802
0.313798
0.313797
0.313799
0.313801
0.313802
0.313803
0.313804
0.313805
0.313805
0.313804
0.313803
0.313804
0.313806
0.313808
0.31381
0.313811
0.313807
0.313788
0.313751
0.313725
0.31376
0.313734
0.313739
0.313743
0.313743
0.31374
0.313735
0.313732
0.313728
0.313725
0.313723
0.313722
0.313723
0.313724
0.313725
0.313726
0.313727
0.313728
0.313727
0.313725
0.313725
0.313726
0.313728
0.31373
0.313734
0.313738
0.313741
0.313738
0.313732
0.313749
0.313784
0.313716
0.313687
0.313674
0.313667
0.313661
0.313656
0.313653
0.313651
0.313648
0.313646
0.313645
0.313645
0.313646
0.313647
0.313648
0.313649
0.313649
0.313647
0.313646
0.313646
0.313647
0.313649
0.313652
0.313658
0.313666
0.313675
0.313686
0.313711
0.313769
0.313798
0.313691
0.313631
0.313603
0.31359
0.313582
0.313577
0.313573
0.313571
0.313569
0.313566
0.313564
0.313564
0.313565
0.313567
0.313567
0.313567
0.313566
0.313565
0.313564
0.313565
0.313567
0.313569
0.313573
0.313581
0.313591
0.313605
0.313632
0.313685
0.31378
0.313801
0.313658
0.313572
0.31353
0.313512
0.313502
0.313496
0.313491
0.313488
0.313485
0.313482
0.31348
0.31348
0.313481
0.313482
0.313482
0.313482
0.313481
0.31348
0.31348
0.313482
0.313484
0.313487
0.313492
0.3135
0.313512
0.313532
0.313573
0.313653
0.313782
0.313796
0.31362
0.313511
0.313456
0.313432
0.31342
0.313411
0.313406
0.313402
0.313399
0.313396
0.313394
0.313395
0.313396
0.313397
0.313397
0.313396
0.313395
0.313395
0.313395
0.313398
0.313401
0.313404
0.313409
0.313416
0.313429
0.313456
0.313511
0.313615
0.313777
0.313785
0.31358
0.313449
0.313382
0.313351
0.313335
0.313324
0.313319
0.313315
0.313313
0.313311
0.31331
0.31331
0.313311
0.313312
0.313312
0.313311
0.313311
0.31331
0.313311
0.313313
0.313317
0.31332
0.313325
0.313332
0.313348
0.31338
0.313448
0.313575
0.313768
0.313772
0.313541
0.31339
0.313309
0.313271
0.313252
0.313241
0.313235
0.313233
0.313231
0.313229
0.313228
0.313229
0.313229
0.313229
0.313229
0.313228
0.313228
0.313228
0.313228
0.31323
0.313233
0.313237
0.313242
0.313251
0.313269
0.313307
0.313387
0.313537
0.313757
0.31376
0.313505
0.313334
0.313241
0.313197
0.313175
0.313164
0.313158
0.313156
0.313154
0.313152
0.313151
0.313151
0.313151
0.313151
0.31315
0.313149
0.313149
0.313149
0.31315
0.313152
0.313155
0.313159
0.313164
0.313175
0.313195
0.313238
0.31333
0.3135
0.313745
0.313751
0.313473
0.313284
0.31318
0.31313
0.313106
0.313093
0.313088
0.313085
0.313083
0.313082
0.313082
0.313082
0.313081
0.313079
0.313077
0.313077
0.313078
0.313079
0.31308
0.313081
0.313084
0.313088
0.313094
0.313106
0.313128
0.313178
0.313281
0.313468
0.313734
0.313748
0.313449
0.313243
0.313129
0.313073
0.313046
0.313033
0.313027
0.313024
0.313024
0.313023
0.313023
0.313022
0.313019
0.313016
0.313015
0.313016
0.313017
0.313019
0.313021
0.313022
0.313024
0.313028
0.313035
0.313048
0.313074
0.313128
0.313241
0.313444
0.31373
0.313756
0.313438
0.313217
0.313093
0.313031
0.313001
0.312987
0.312981
0.312979
0.312978
0.312977
0.312977
0.312975
0.312971
0.312968
0.312968
0.31297
0.312972
0.312974
0.312975
0.312976
0.312978
0.312982
0.31299
0.313004
0.313033
0.313093
0.313216
0.313434
0.31374
0.313791
0.313453
0.313216
0.313081
0.313012
0.31298
0.312964
0.312958
0.312955
0.312954
0.312953
0.312952
0.312949
0.312946
0.312944
0.312944
0.312946
0.312948
0.31295
0.312952
0.312953
0.312955
0.312959
0.312966
0.312982
0.313014
0.313081
0.313216
0.31345
0.313775
0.313878
0.313518
0.31326
0.313111
0.313035
0.312999
0.312982
0.312974
0.31297
0.312969
0.312968
0.312967
0.312965
0.312962
0.31296
0.312961
0.312962
0.312965
0.312967
0.312969
0.31297
0.312971
0.312974
0.312982
0.312999
0.313036
0.313111
0.31326
0.313515
0.313863
0.314074
0.313682
0.313391
0.31322
0.313134
0.313094
0.313076
0.313067
0.313063
0.313062
0.313062
0.313062
0.31306
0.313057
0.313055
0.313056
0.313058
0.31306
0.313062
0.313063
0.313064
0.313064
0.313067
0.313075
0.313094
0.313135
0.313221
0.313391
0.31368
0.314062
0.314488
0.314036
0.313685
0.313477
0.313375
0.31333
0.313311
0.313303
0.3133
0.3133
0.3133
0.3133
0.313298
0.313296
0.313296
0.313296
0.313298
0.3133
0.313301
0.313301
0.3133
0.3133
0.313302
0.31331
0.313329
0.313375
0.313478
0.313686
0.314038
0.314481
0.315252
0.314683
0.314218
0.31395
0.313824
0.313774
0.313756
0.31375
0.313749
0.31375
0.313752
0.313752
0.313751
0.31375
0.313749
0.31375
0.313751
0.313752
0.313752
0.313751
0.31375
0.313749
0.313749
0.313754
0.313772
0.313824
0.313951
0.314222
0.31469
0.315255
0.316235
0.315503
0.3149
0.314569
0.314424
0.314372
0.314357
0.314354
0.314356
0.314359
0.314362
0.314363
0.314363
0.314362
0.314361
0.314361
0.314362
0.314362
0.314362
0.31436
0.314358
0.314355
0.314353
0.314354
0.31437
0.314424
0.314572
0.314909
0.315517
0.316248
0.202173
0.202262
0.202192
0.202126
0.20208
0.202058
0.202048
0.202041
0.202009
0.201965
0.201934
0.201933
0.201943
0.201941
0.201931
0.201927
0.201932
0.201939
0.201953
0.201975
0.201999
0.202018
0.202031
0.202039
0.202054
0.202083
0.202117
0.202161
0.202201
0.202135
0.31679
0.316559
0.316324
0.316249
0.316259
0.316305
0.316351
0.316368
0.316357
0.316338
0.316339
0.316357
0.316372
0.316373
0.316372
0.316377
0.31638
0.316377
0.316375
0.316375
0.316374
0.316367
0.316346
0.316317
0.316288
0.316266
0.316267
0.316326
0.316534
0.316737
0.317466
0.317441
0.317333
0.317283
0.317284
0.317312
0.317341
0.317357
0.317357
0.317352
0.317356
0.317366
0.317373
0.317376
0.31738
0.317384
0.317384
0.317378
0.317371
0.317366
0.317362
0.317355
0.317339
0.317317
0.317295
0.317282
0.31729
0.31734
0.317438
0.317435
0.314355
0.314537
0.314592
0.3146
0.314608
0.31463
0.314656
0.314671
0.314676
0.314677
0.314682
0.314689
0.314695
0.314699
0.314704
0.314707
0.314705
0.314699
0.314692
0.314686
0.314682
0.314674
0.31466
0.314639
0.314619
0.314604
0.314597
0.314592
0.314533
0.314338
0.312322
0.312578
0.312721
0.312766
0.312785
0.312805
0.312824
0.312839
0.312846
0.312851
0.312858
0.312866
0.312873
0.312878
0.312883
0.312885
0.312883
0.312878
0.312871
0.312866
0.312863
0.312855
0.312841
0.312823
0.312804
0.312784
0.312763
0.312715
0.312571
0.312314
0.311155
0.311403
0.31157
0.311633
0.311656
0.311674
0.311689
0.311701
0.311709
0.311718
0.311727
0.311735
0.311742
0.311748
0.311751
0.31175
0.311747
0.311742
0.311737
0.311734
0.311732
0.311726
0.311715
0.3117
0.311683
0.311662
0.311634
0.311568
0.311402
0.311155
0.310536
0.310742
0.310899
0.310965
0.310991
0.311006
0.311017
0.311026
0.311035
0.311044
0.311052
0.311058
0.311064
0.311068
0.311068
0.311065
0.311059
0.311054
0.311052
0.311051
0.31105
0.311047
0.31104
0.31103
0.311016
0.310998
0.31097
0.310903
0.310748
0.310539
0.310237
0.310389
0.310519
0.310579
0.310603
0.310614
0.31062
0.310626
0.310633
0.310639
0.310643
0.310647
0.31065
0.310652
0.31065
0.310645
0.310639
0.310635
0.310635
0.310636
0.310637
0.310636
0.310633
0.310627
0.310617
0.310604
0.310581
0.310522
0.310395
0.31024
0.310125
0.310215
0.310305
0.310351
0.31037
0.310376
0.310377
0.31038
0.310383
0.310385
0.310386
0.310387
0.310389
0.31039
0.310387
0.310382
0.310377
0.310376
0.310378
0.31038
0.310381
0.310381
0.310381
0.310378
0.310372
0.310365
0.310347
0.310303
0.310218
0.310126
0.310113
0.310137
0.31018
0.310207
0.310219
0.310221
0.310219
0.310219
0.310218
0.310217
0.310214
0.310214
0.310216
0.310217
0.310215
0.310212
0.31021
0.31021
0.310213
0.310215
0.310216
0.310217
0.310218
0.310217
0.310215
0.310212
0.310202
0.310178
0.310141
0.310114
0.310149
0.310107
0.310101
0.310107
0.310111
0.31011
0.310107
0.310104
0.310101
0.310097
0.310092
0.310091
0.310093
0.310095
0.310095
0.310093
0.310093
0.310095
0.310097
0.310098
0.310098
0.310099
0.310102
0.310103
0.310104
0.310105
0.310103
0.310102
0.310116
0.310153
0.310205
0.3101
0.310045
0.310028
0.310024
0.31002
0.310015
0.310011
0.310006
0.31
0.309995
0.309994
0.309996
0.309998
0.309999
0.309999
0.31
0.310001
0.310002
0.310002
0.310001
0.310003
0.310007
0.31001
0.310013
0.310017
0.310024
0.310049
0.310111
0.310211
0.310267
0.310102
0.309999
0.309957
0.309943
0.309936
0.30993
0.309925
0.30992
0.309914
0.30991
0.309909
0.309911
0.309912
0.309913
0.309914
0.309915
0.309916
0.309916
0.309914
0.309914
0.309916
0.30992
0.309923
0.309928
0.309936
0.309954
0.310002
0.310111
0.31027
0.310323
0.310102
0.309954
0.309888
0.309863
0.309852
0.309845
0.30984
0.309836
0.309831
0.309828
0.309827
0.309828
0.309829
0.30983
0.309831
0.309832
0.309833
0.309831
0.30983
0.30983
0.309832
0.309836
0.30984
0.309847
0.309859
0.309886
0.309957
0.31011
0.310324
0.310369
0.310096
0.309906
0.309816
0.309782
0.309767
0.309759
0.309755
0.309751
0.309748
0.309745
0.309743
0.309744
0.309745
0.309747
0.309748
0.309748
0.309748
0.309746
0.309744
0.309745
0.309747
0.309751
0.309756
0.309766
0.309782
0.309818
0.30991
0.310102
0.310366
0.3104
0.31008
0.309852
0.309742
0.3097
0.309682
0.309673
0.309668
0.309664
0.30966
0.309657
0.309655
0.309656
0.309657
0.309659
0.309659
0.309659
0.309657
0.309655
0.309655
0.309657
0.309659
0.309663
0.309669
0.309681
0.309701
0.309746
0.309857
0.310085
0.310395
0.310417
0.310053
0.309793
0.309666
0.309615
0.309594
0.309582
0.309576
0.309572
0.309567
0.309564
0.309562
0.309563
0.309564
0.309565
0.309565
0.309564
0.309563
0.309562
0.309562
0.309565
0.309568
0.309571
0.309578
0.309591
0.309614
0.309668
0.309798
0.310059
0.31041
0.310422
0.31002
0.309731
0.309586
0.309527
0.309501
0.309487
0.30948
0.309475
0.309471
0.309468
0.309467
0.309468
0.309469
0.30947
0.30947
0.309469
0.309468
0.309467
0.309468
0.309471
0.309474
0.309478
0.309485
0.309498
0.309524
0.309587
0.309735
0.310025
0.310415
0.31042
0.309983
0.309667
0.309506
0.309436
0.309406
0.309391
0.309383
0.309379
0.309376
0.309374
0.309373
0.309374
0.309375
0.309375
0.309375
0.309374
0.309373
0.309372
0.309373
0.309376
0.30938
0.309384
0.309391
0.309404
0.309434
0.309505
0.30967
0.309988
0.310415
0.310416
0.309947
0.309605
0.309426
0.309348