/*--------------------------------*- C++ -*----------------------------------*\
| =========                 |                                                 |
| \\      /  F ield         | OpenFOAM: The Open Source CFD Toolbox           |
|  \\    /   O peration     | Version:  2506                                  |
|   \\  /    A nd           | Website:  www.openfoam.com                      |
|    \\/     M anipulation  |                                                 |
\*---------------------------------------------------------------------------*/
FoamFile
{
    version     2.0;
    format      ascii;
    arch        "LSB;label=32;scalar=64";
    class       volScalarField;
    location    "10";
    object      nut;
}
// * * * * * * * * * * * * * * * * * * * * * * * * * * * * * * * * * * * * * //

dimensions      [0 2 -1 0 0 0 0];

internalField   nonuniform List<scalar> 
144676
(
0.0589248
0.0589216
0.0589206
0.0589181
0.0589176
0.0589172
0.0589164
0.058916
0.0589158
0.0589143
0.0589121
0.0589102
0.0589113
0.0589133
0.0589135
0.0589131
0.0589144
0.0589164
0.0589155
0.0589125
0.0589115
0.0589133
0.0589152
0.0589153
0.0589142
0.0589138
0.0589159
0.0589182
0.0589191
0.0589248
0.19577
0.195768
0.195771
0.195773
0.195774
0.195775
0.195776
0.195775
0.195773
0.19577
0.195769
0.195771
0.195774
0.195774
0.195772
0.195773
0.195774
0.195773
0.195772
0.195772
0.195773
0.195773
0.195772
0.195771
0.195769
0.195769
0.19577
0.195769
0.195768
0.195768
0.3228
0.32277
0.322776
0.322781
0.322783
0.322784
0.322783
0.32278
0.322776
0.322772
0.32277
0.322772
0.322774
0.322775
0.322775
0.322777
0.322778
0.322778
0.322776
0.322776
0.322777
0.322778
0.322778
0.322777
0.322777
0.322777
0.322776
0.322773
0.322768
0.322796
0.449478
0.44945
0.449461
0.449467
0.449469
0.449469
0.449468
0.449466
0.449464
0.449462
0.449462
0.449464
0.449466
0.449466
0.449467
0.449469
0.449469
0.449467
0.449465
0.449465
0.449465
0.449466
0.449466
0.449466
0.449467
0.449467
0.449467
0.449463
0.449453
0.44948
0.576044
0.576023
0.576043
0.576052
0.576053
0.576052
0.576051
0.576051
0.57605
0.576049
0.576048
0.576048
0.576048
0.576048
0.576049
0.57605
0.576049
0.576048
0.576048
0.576049
0.57605
0.576052
0.576053
0.576054
0.576054
0.576053
0.576051
0.576043
0.576023
0.576047
0.702529
0.702504
0.702526
0.702536
0.702536
0.702533
0.702531
0.70253
0.702528
0.702527
0.702526
0.702526
0.702526
0.702526
0.702527
0.702527
0.702526
0.702526
0.702526
0.702528
0.702529
0.702531
0.702533
0.702534
0.702534
0.702534
0.702532
0.702521
0.702498
0.702526
0.828934
0.828884
0.828901
0.828911
0.828911
0.828908
0.828906
0.828903
0.828901
0.8289
0.8289
0.8289
0.8289
0.8289
0.828901
0.8289
0.828899
0.828899
0.8289
0.828901
0.828903
0.828905
0.828907
0.828908
0.828908
0.828909
0.828907
0.828894
0.828875
0.828924
0.955229
0.955131
0.955135
0.955142
0.955143
0.955141
0.955138
0.955135
0.955132
0.955132
0.955133
0.955133
0.955133
0.955133
0.955133
0.955131
0.955129
0.955128
0.955129
0.95513
0.955132
0.955134
0.955136
0.955139
0.95514
0.955142
0.95514
0.95513
0.955124
0.955212
1.08138
1.08121
1.08119
1.08119
1.08119
1.08119
1.08118
1.08118
1.08118
1.08118
1.08118
1.08118
1.08118
1.08118
1.08118
1.08117
1.08117
1.08117
1.08117
1.08117
1.08117
1.08118
1.08118
1.08118
1.08118
1.08119
1.08119
1.08118
1.0812
1.08135
1.20735
1.20707
1.20701
1.20701
1.207
1.207
1.207
1.20699
1.20699
1.20699
1.20699
1.20699
1.20699
1.20699
1.20699
1.20699
1.20698
1.20698
1.20698
1.20698
1.20699
1.20699
1.20699
1.20699
1.207
1.207
1.207
1.20701
1.20707
1.2073
1.3331
1.33269
1.33258
1.33255
1.33255
1.33255
1.33254
1.33254
1.33253
1.33253
1.33253
1.33253
1.33253
1.33253
1.33253
1.33253
1.33253
1.33253
1.33253
1.33253
1.33253
1.33253
1.33254
1.33254
1.33254
1.33255
1.33255
1.33258
1.33269
1.33304
1.4586
1.45803
1.45785
1.4578
1.45779
1.45779
1.45778
1.45778
1.45777
1.45777
1.45777
1.45777
1.45777
1.45777
1.45777
1.45777
1.45777
1.45777
1.45777
1.45777
1.45777
1.45777
1.45778
1.45778
1.45778
1.45779
1.4578
1.45785
1.45803
1.45851
1.58383
1.58306
1.5828
1.58272
1.58271
1.5827
1.5827
1.58269
1.58269
1.58269
1.58268
1.58268
1.58269
1.58269
1.58269
1.58269
1.58269
1.58269
1.58269
1.58269
1.58269
1.58269
1.58269
1.58269
1.58269
1.5827
1.58273
1.58281
1.58306
1.58371
1.70876
1.70777
1.70741
1.7073
1.70727
1.70726
1.70726
1.70726
1.70725
1.70725
1.70725
1.70725
1.70726
1.70726
1.70726
1.70726
1.70726
1.70726
1.70726
1.70726
1.70725
1.70725
1.70725
1.70725
1.70726
1.70727
1.7073
1.70742
1.70776
1.7086
1.83337
1.83213
1.83167
1.83152
1.83148
1.83146
1.83146
1.83146
1.83146
1.83146
1.83146
1.83146
1.83146
1.83146
1.83146
1.83146
1.83146
1.83146
1.83146
1.83146
1.83146
1.83146
1.83146
1.83146
1.83146
1.83147
1.83152
1.83168
1.83211
1.83317
1.95766
1.95614
1.95555
1.95536
1.95531
1.95529
1.95529
1.95529
1.95529
1.95529
1.95529
1.95529
1.95529
1.95529
1.95529
1.95529
1.95529
1.95529
1.95529
1.95529
1.95529
1.95529
1.95529
1.95528
1.95529
1.95531
1.95537
1.95557
1.95611
1.9574
2.08161
2.07977
2.07906
2.07882
2.07875
2.07874
2.07873
2.07873
2.07874
2.07874
2.07874
2.07874
2.07874
2.07874
2.07874
2.07874
2.07874
2.07874
2.07874
2.07873
2.07873
2.07873
2.07873
2.07873
2.07874
2.07876
2.07883
2.07908
2.07975
2.08129
2.2052
2.20303
2.20218
2.2019
2.20182
2.2018
2.20179
2.20179
2.20179
2.2018
2.2018
2.2018
2.2018
2.2018
2.2018
2.2018
2.2018
2.2018
2.20179
2.20179
2.20179
2.20179
2.20179
2.20179
2.2018
2.20182
2.20191
2.2022
2.203
2.20482
2.32844
2.32591
2.32492
2.32458
2.32449
2.32446
2.32446
2.32446
2.32446
2.32446
2.32446
2.32446
2.32446
2.32446
2.32447
2.32447
2.32447
2.32446
2.32446
2.32446
2.32446
2.32446
2.32446
2.32446
2.32446
2.32449
2.3246
2.32494
2.32587
2.32799
2.45132
2.44841
2.44727
2.44688
2.44676
2.44673
2.44673
2.44673
2.44673
2.44673
2.44673
2.44674
2.44674
2.44674
2.44674
2.44674
2.44674
2.44674
2.44674
2.44674
2.44673
2.44673
2.44673
2.44673
2.44674
2.44677
2.44689
2.44729
2.44837
2.45079
2.57384
2.57053
2.56923
2.56878
2.56865
2.56861
2.56861
2.56861
2.56861
2.56861
2.56861
2.56862
2.56862
2.56862
2.56862
2.56862
2.56862
2.56862
2.56862
2.56862
2.56861
2.56861
2.56861
2.56861
2.56862
2.56865
2.5688
2.56925
2.57048
2.57323
2.696
2.69227
2.6908
2.69029
2.69014
2.6901
2.69009
2.69009
2.6901
2.6901
2.6901
2.69011
2.69011
2.69011
2.69011
2.69011
2.69011
2.69011
2.69011
2.69011
2.6901
2.6901
2.6901
2.6901
2.69011
2.69015
2.69031
2.69082
2.69221
2.69531
2.8178
2.81363
2.81198
2.81141
2.81124
2.8112
2.81119
2.81119
2.81119
2.8112
2.8112
2.81121
2.81121
2.81121
2.81121
2.81121
2.81121
2.81121
2.81121
2.8112
2.8112
2.8112
2.81119
2.81119
2.8112
2.81125
2.81143
2.812
2.81356
2.81702
2.93924
2.9346
2.93277
2.93214
2.93195
2.93191
2.9319
2.9319
2.9319
2.93191
2.93191
2.93192
2.93192
2.93192
2.93192
2.93192
2.93192
2.93192
2.93192
2.93191
2.93191
2.9319
2.9319
2.9319
2.93191
2.93197
2.93217
2.9328
2.93452
2.93836
3.06034
3.05521
3.05318
3.05248
3.05228
3.05223
3.05222
3.05222
3.05223
3.05223
3.05224
3.05224
3.05225
3.05225
3.05225
3.05225
3.05225
3.05224
3.05224
3.05224
3.05223
3.05223
3.05222
3.05222
3.05224
3.0523
3.05252
3.05322
3.05512
3.05935
3.18109
3.17546
3.17323
3.17247
3.17224
3.17218
3.17217
3.17218
3.17218
3.17219
3.17219
3.1722
3.1722
3.17221
3.17221
3.17221
3.1722
3.1722
3.1722
3.1722
3.17219
3.17218
3.17218
3.17218
3.17219
3.17226
3.1725
3.17328
3.17536
3.18
3.30152
3.29538
3.29294
3.29211
3.29186
3.2918
3.29179
3.29179
3.2918
3.29181
3.29181
3.29182
3.29182
3.29182
3.29182
3.29182
3.29182
3.29182
3.29182
3.29181
3.29181
3.2918
3.29179
3.29179
3.2918
3.29188
3.29215
3.29299
3.29528
3.30032
3.42137
3.41475
3.41213
3.41124
3.41096
3.4109
3.41088
3.41089
3.41089
3.4109
3.41091
3.41091
3.41092
3.41092
3.41092
3.41092
3.41092
3.41092
3.41092
3.41091
3.4109
3.41089
3.41089
3.41089
3.4109
3.41098
3.41128
3.41221
3.41468
3.42012
3.53857
3.53168
3.52897
3.52802
3.52773
3.52765
3.52764
3.52764
3.52765
3.52765
3.52766
3.52766
3.52767
3.52767
3.52767
3.52768
3.52768
3.52767
3.52767
3.52766
3.52765
3.52764
3.52764
3.52764
3.52765
3.52775
3.52807
3.52907
3.53169
3.5374
3.64009
3.63345
3.63081
3.62987
3.62956
3.62947
3.62945
3.62945
3.62946
3.62946
3.62947
3.62947
3.62948
3.62948
3.62948
3.62948
3.62948
3.62948
3.62948
3.62947
3.62946
3.62946
3.62945
3.62945
3.62947
3.62958
3.62993
3.63096
3.63359
3.63924
0.0552577
0.055252
0.0552486
0.0552456
0.0552435
0.0552427
0.0552404
0.055239
0.0552369
0.055232
0.0552265
0.0552266
0.0552319
0.0552358
0.0552354
0.0552356
0.055239
0.0552396
0.0552349
0.0552314
0.0552333
0.0552366
0.0552375
0.0552358
0.0552338
0.0552358
0.0552405
0.055244
0.055247
0.0552545
0.196667
0.196672
0.196668
0.196667
0.196668
0.19667
0.196672
0.196669
0.196662
0.196653
0.196649
0.196652
0.196656
0.196656
0.196655
0.196656
0.196659
0.196658
0.196658
0.19666
0.196664
0.196664
0.196663
0.196661
0.196659
0.19666
0.196661
0.196662
0.196665
0.196661
0.323138
0.323126
0.323125
0.323123
0.323123
0.323124
0.323123
0.323119
0.323111
0.323103
0.323099
0.3231
0.323101
0.3231
0.323101
0.323103
0.323104
0.323104
0.323104
0.323107
0.323109
0.323111
0.323112
0.323113
0.323114
0.323116
0.323119
0.323123
0.323125
0.323142
0.449601
0.449586
0.449597
0.4496
0.449599
0.449596
0.449595
0.449591
0.449585
0.449579
0.449576
0.449575
0.449574
0.449573
0.449575
0.449576
0.449576
0.449575
0.449576
0.449577
0.44958
0.449583
0.449586
0.449587
0.449589
0.449592
0.449597
0.449597
0.449591
0.449614
0.575707
0.575675
0.575693
0.575702
0.5757
0.575695
0.575692
0.575689
0.575684
0.575679
0.575676
0.575673
0.575671
0.57567
0.575671
0.575672
0.575672
0.575673
0.575675
0.575677
0.575682
0.575687
0.57569
0.575692
0.575693
0.575695
0.575696
0.575687
0.575674
0.57572
0.701413
0.701308
0.701312
0.701319
0.701315
0.701308
0.701304
0.701298
0.701295
0.701293
0.701293
0.701293
0.701293
0.701294
0.701295
0.701294
0.701293
0.701293
0.701294
0.701296
0.7013
0.701304
0.701307
0.701309
0.70131
0.701313
0.701313
0.701302
0.701305
0.701419
0.826697
0.826445
0.826403
0.826402
0.8264
0.826397
0.826392
0.826388
0.826382
0.82638
0.826379
0.826378
0.826377
0.826377
0.826376
0.826373
0.826372
0.826372
0.826374
0.826378
0.826385
0.826392
0.826399
0.826402
0.826403
0.826405
0.826401
0.826401
0.826449
0.826695
0.951457
0.950979
0.950857
0.950838
0.950834
0.950827
0.950817
0.950809
0.950803
0.950801
0.9508
0.950799
0.950797
0.950796
0.950793
0.950788
0.950784
0.950783
0.950785
0.950791
0.950798
0.950807
0.950816
0.950822
0.950828
0.950835
0.95084
0.950863
0.950993
0.951446
1.07558
1.07478
1.07454
1.07449
1.07447
1.07446
1.07445
1.07444
1.07443
1.07443
1.07443
1.07442
1.07442
1.07442
1.07442
1.07441
1.07441
1.07441
1.07441
1.07441
1.07442
1.07443
1.07444
1.07445
1.07446
1.07447
1.07448
1.07455
1.07481
1.07555
1.19894
1.19774
1.19733
1.19722
1.19719
1.19718
1.19716
1.19715
1.19714
1.19714
1.19713
1.19713
1.19713
1.19713
1.19712
1.19712
1.19712
1.19712
1.19712
1.19713
1.19713
1.19714
1.19715
1.19716
1.19717
1.19718
1.19722
1.19734
1.19777
1.19889
1.32145
1.31973
1.31911
1.31893
1.31888
1.31886
1.31885
1.31884
1.31883
1.31882
1.31881
1.31881
1.31881
1.31881
1.31881
1.31881
1.31881
1.31881
1.31881
1.31882
1.31882
1.31883
1.31884
1.31884
1.31885
1.31887
1.31893
1.31914
1.31978
1.32136
1.44299
1.44068
1.43981
1.43954
1.43947
1.43944
1.43943
1.43942
1.43941
1.4394
1.43939
1.43939
1.43939
1.43939
1.43939
1.43939
1.4394
1.4394
1.4394
1.4394
1.43941
1.43941
1.43941
1.43942
1.43943
1.43946
1.43954
1.43985
1.44074
1.44287
1.56352
1.56051
1.55936
1.55898
1.55888
1.55885
1.55884
1.55883
1.55882
1.55881
1.55881
1.55881
1.55881
1.55881
1.55881
1.55881
1.55882
1.55882
1.55882
1.55882
1.55882
1.55882
1.55883
1.55883
1.55884
1.55887
1.55899
1.55941
1.56059
1.56334
1.68299
1.6792
1.67772
1.67723
1.67708
1.67705
1.67704
1.67703
1.67703
1.67702
1.67702
1.67702
1.67703
1.67703
1.67703
1.67703
1.67703
1.67703
1.67703
1.67703
1.67703
1.67703
1.67703
1.67702
1.67703
1.67708
1.67724
1.67778
1.67929
1.68273
1.80135
1.79671
1.79487
1.79424
1.79405
1.79401
1.79399
1.79399
1.794
1.794
1.794
1.794
1.794
1.794
1.79401
1.79401
1.79401
1.79401
1.794
1.794
1.79399
1.79399
1.79399
1.79399
1.794
1.79406
1.79427
1.79494
1.7968
1.80101
1.91857
1.91301
1.91078
1.91001
1.90978
1.90972
1.90971
1.90971
1.90972
1.90972
1.90972
1.90973
1.90973
1.90973
1.90973
1.90973
1.90973
1.90973
1.90973
1.90972
1.90972
1.90971
1.90971
1.9097
1.90972
1.90979
1.91005
1.91087
1.91312
1.91814
2.03465
2.02809
2.02545
2.02453
2.02426
2.02419
2.02418
2.02418
2.02419
2.02419
2.0242
2.0242
2.0242
2.0242
2.02421
2.02421
2.0242
2.0242
2.02419
2.02419
2.02418
2.02418
2.02417
2.02417
2.02419
2.02427
2.02458
2.02556
2.02821
2.03412
2.14957
2.14195
2.13888
2.13781
2.13749
2.13741
2.1374
2.1374
2.13741
2.13741
2.13742
2.13742
2.13742
2.13743
2.13743
2.13743
2.13743
2.13742
2.13742
2.13741
2.13741
2.1374
2.1374
2.13739
2.13741
2.1375
2.13786
2.13901
2.14209
2.14893
2.26334
2.2546
2.25108
2.24985
2.24948
2.24939
2.24937
2.24938
2.24938
2.24939
2.2494
2.2494
2.24941
2.24941
2.24942
2.24942
2.24942
2.24941
2.24941
2.2494
2.24939
2.24939
2.24938
2.24937
2.24939
2.2495
2.24991
2.25123
2.25476
2.26258
2.37596
2.36605
2.36207
2.36067
2.36025
2.36014
2.36012
2.36013
2.36014
2.36015
2.36015
2.36016
2.36017
2.36017
2.36018
2.36018
2.36018
2.36017
2.36017
2.36016
2.36015
2.36014
2.36013
2.36013
2.36014
2.36027
2.36074
2.36223
2.36623
2.37508
2.48745
2.47632
2.47185
2.47029
2.46981
2.46969
2.46967
2.46967
2.46968
2.4697
2.4697
2.46971
2.46972
2.46973
2.46973
2.46973
2.46973
2.46973
2.46972
2.46971
2.4697
2.46969
2.46967
2.46967
2.46969
2.46983
2.47036
2.47203
2.47652
2.48643
2.59781
2.58542
2.58045
2.57871
2.57818
2.57805
2.57802
2.57803
2.57804
2.57805
2.57807
2.57808
2.57809
2.5781
2.5781
2.5781
2.57809
2.57809
2.57808
2.57807
2.57806
2.57804
2.57803
2.57802
2.57805
2.5782
2.57879
2.58064
2.58563
2.59664
2.70707
2.69336
2.68787
2.68595
2.68537
2.68523
2.6852
2.68521
2.68522
2.68524
2.68526
2.68527
2.68528
2.68529
2.68529
2.68529
2.68529
2.68528
2.68527
2.68526
2.68524
2.68523
2.68521
2.68521
2.68524
2.68541
2.68605
2.6881
2.69359
2.70574
2.81524
2.80017
2.79414
2.79205
2.79141
2.79125
2.79123
2.79124
2.79126
2.79128
2.79129
2.79131
2.79132
2.79133
2.79133
2.79133
2.79133
2.79132
2.79131
2.7913
2.79128
2.79126
2.79124
2.79124
2.79127
2.79146
2.79216
2.7944
2.80042
2.81375
2.92237
2.90589
2.89931
2.89702
2.89633
2.89616
2.89613
2.89615
2.89617
2.89619
2.89621
2.89623
2.89624
2.89625
2.89625
2.89625
2.89625
2.89624
2.89623
2.89621
2.89619
2.89617
2.89615
2.89615
2.89618
2.89638
2.89715
2.89959
2.90616
2.9207
3.02854
3.01061
3.00346
3.00097
3.00022
3.00004
3.00001
3.00002
3.00005
3.00007
3.00009
3.00011
3.00012
3.00013
3.00014
3.00014
3.00013
3.00012
3.00011
3.00009
3.00007
3.00005
3.00003
3.00002
3.00005
3.00027
3.00111
3.00376
3.01091
3.02671
3.13389
3.11449
3.10676
3.10407
3.10325
3.10305
3.10302
3.10303
3.10306
3.10308
3.1031
3.10312
3.10314
3.10315
3.10316
3.10316
3.10315
3.10314
3.10313
3.10311
3.10308
3.10306
3.10303
3.10302
3.10307
3.10331
3.10422
3.10711
3.11484
3.13192
3.23825
3.21754
3.2093
3.20641
3.20552
3.20529
3.20525
3.20527
3.20529
3.20532
3.20534
3.20536
3.20538
3.20539
3.2054
3.2054
3.2054
3.20539
3.20537
3.20534
3.20532
3.20529
3.20526
3.20525
3.20531
3.20558
3.20658
3.20971
3.21803
3.23631
3.33922
3.31784
3.30934
3.30632
3.30535
3.30509
3.30504
3.30505
3.30507
3.30509
3.30511
3.30513
3.30515
3.30516
3.30517
3.30517
3.30517
3.30516
3.30514
3.30512
3.30509
3.30506
3.30504
3.30503
3.3051
3.30541
3.30652
3.30987
3.31863
3.33771
3.42447
3.40401
3.39575
3.39271
3.39169
3.39139
3.39132
3.39132
3.39134
3.39136
3.39137
3.39139
3.39141
3.39142
3.39143
3.39143
3.39143
3.39142
3.3914
3.39138
3.39135
3.39133
3.39131
3.39131
3.39139
3.39175
3.39293
3.3964
3.40521
3.42409
0.052416
0.052437
0.0524335
0.052426
0.0524194
0.052415
0.0524112
0.0524085
0.0524037
0.0523948
0.0523892
0.0523932
0.0524016
0.052405
0.0524031
0.0524036
0.0524071
0.0524068
0.0524029
0.0524022
0.0524049
0.0524071
0.0524071
0.0524049
0.052405
0.0524102
0.0524168
0.0524244
0.0524266
0.0524102
0.198517
0.198517
0.198471
0.19845
0.198447
0.198451
0.198456
0.198452
0.198442
0.19843
0.198424
0.198427
0.198431
0.198431
0.19843
0.198431
0.198434
0.198435
0.198437
0.198441
0.198445
0.198446
0.198445
0.198441
0.198439
0.19844
0.198445
0.198461
0.198501
0.198506
0.324098
0.324045
0.323986
0.323955
0.323945
0.323944
0.323942
0.323937
0.323925
0.323914
0.323908
0.323907
0.323905
0.323904
0.323904
0.323906
0.323908
0.32391
0.323913
0.323917
0.323921
0.323925
0.323927
0.323928
0.323931
0.323937
0.323951
0.323981
0.32404
0.324095
0.450076
0.449969
0.449909
0.449878
0.449863
0.449857
0.449854
0.449848
0.449838
0.449827
0.449821
0.449817
0.449814
0.449813
0.449814
0.449815
0.449816
0.449818
0.44982
0.449824
0.449829
0.449834
0.449838
0.449841
0.449845
0.449854
0.449871
0.449902
0.449967
0.450069
0.575357
0.575128
0.575039
0.575005
0.574987
0.574978
0.574973
0.574966
0.574957
0.574949
0.574943
0.574938
0.574936
0.574936
0.574937
0.574938
0.57494
0.574942
0.574944
0.574949
0.574955
0.574962
0.574966
0.574969
0.574973
0.574982
0.574997
0.575027
0.575122
0.575336
0.699632
0.69916
0.698986
0.698932
0.69891
0.698898
0.698889
0.698881
0.698874
0.698869
0.698867
0.698866
0.698866
0.698867
0.698867
0.698867
0.698867
0.698868
0.69887
0.698875
0.698882
0.698889
0.698894
0.698897
0.698902
0.698912
0.698927
0.698976
0.699158
0.699606
0.822778
0.821911
0.82159
0.821497
0.821468
0.821455
0.821445
0.821437
0.821431
0.821429
0.821427
0.821426
0.821425
0.821425
0.821423
0.82142
0.821417
0.821417
0.821419
0.821426
0.821436
0.821446
0.821454
0.82146
0.821466
0.821476
0.821499
0.821594
0.821931
0.822757
0.944586
0.943168
0.94263
0.942472
0.942428
0.942408
0.942395
0.942384
0.942379
0.942377
0.942375
0.942372
0.94237
0.942368
0.942364
0.942358
0.942352
0.942351
0.942355
0.942363
0.942374
0.942385
0.942395
0.942404
0.942413
0.942429
0.942475
0.942647
0.943216
0.944582
1.06484
1.0627
1.06187
1.06162
1.06154
1.06152
1.0615
1.06149
1.06148
1.06148
1.06147
1.06147
1.06147
1.06147
1.06146
1.06145
1.06145
1.06145
1.06145
1.06146
1.06147
1.06148
1.06149
1.0615
1.06151
1.06154
1.06162
1.0619
1.06278
1.06486
1.18334
1.18032
1.17912
1.17873
1.17862
1.17859
1.17857
1.17856
1.17855
1.17854
1.17853
1.17853
1.17853
1.17853
1.17852
1.17852
1.17852
1.17852
1.17852
1.17853
1.17854
1.17855
1.17856
1.17857
1.17858
1.17862
1.17874
1.17916
1.18045
1.18338
1.29993
1.29586
1.29422
1.29368
1.29353
1.29348
1.29346
1.29345
1.29344
1.29343
1.29342
1.29342
1.29342
1.29342
1.29342
1.29342
1.29342
1.29342
1.29343
1.29343
1.29344
1.29344
1.29345
1.29346
1.29347
1.29352
1.29369
1.2943
1.29605
1.3
1.41449
1.40923
1.4071
1.40637
1.40617
1.40611
1.40609
1.40608
1.40607
1.40606
1.40605
1.40605
1.40605
1.40606
1.40606
1.40606
1.40606
1.40606
1.40607
1.40607
1.40607
1.40607
1.40608
1.40608
1.4061
1.40616
1.40639
1.4072
1.40949
1.4146
1.52696
1.52038
1.51769
1.51677
1.5165
1.51643
1.51641
1.5164
1.51639
1.51639
1.51638
1.51638
1.51639
1.51639
1.51639
1.51639
1.5164
1.5164
1.5164
1.5164
1.5164
1.5164
1.5164
1.5164
1.51641
1.51649
1.5168
1.51783
1.52072
1.5271
1.63731
1.62929
1.62601
1.62485
1.62451
1.62442
1.6244
1.6244
1.6244
1.6244
1.6244
1.62441
1.62441
1.62441
1.62442
1.62442
1.62442
1.62442
1.62442
1.62441
1.62441
1.6244
1.6244
1.62439
1.62441
1.62451
1.6249
1.62618
1.6297
1.63747
1.74553
1.73597
1.73205
1.73066
1.73023
1.73013
1.73011
1.73011
1.73012
1.73013
1.73013
1.73013
1.73014
1.73014
1.73015
1.73015
1.73015
1.73015
1.73014
1.73013
1.73013
1.73012
1.7301
1.7301
1.73012
1.73024
1.73072
1.73227
1.73647
1.74571
1.85164
1.84044
1.83585
1.83421
1.83371
1.83358
1.83356
1.83357
1.83359
1.83359
1.8336
1.83361
1.83361
1.83362
1.83362
1.83362
1.83362
1.83362
1.83361
1.8336
1.83359
1.83357
1.83356
1.83355
1.83358
1.83373
1.8343
1.83612
1.84103
1.85183
1.95565
1.94273
1.93745
1.93556
1.93498
1.93484
1.93482
1.93483
1.93484
1.93485
1.93486
1.93487
1.93487
1.93488
1.93488
1.93488
1.93488
1.93487
1.93486
1.93485
1.93484
1.93483
1.93481
1.9348
1.93483
1.93501
1.93567
1.93777
1.94342
1.95586
2.0576
2.04291
2.03691
2.03477
2.03411
2.03394
2.03392
2.03393
2.03395
2.03396
2.03397
2.03398
2.03399
2.03399
2.034
2.034
2.034
2.03399
2.03398
2.03397
2.03395
2.03394
2.03392
2.03391
2.03394
2.03414
2.0349
2.03729
2.0437
2.05783
2.15756
2.14102
2.1343
2.1319
2.13116
2.13096
2.13094
2.13095
2.13097
2.13098
2.131
2.13101
2.13102
2.13103
2.13103
2.13104
2.13103
2.13102
2.13101
2.131
2.13098
2.13096
2.13094
2.13093
2.13096
2.13119
2.13204
2.13473
2.14192
2.15779
2.25556
2.23714
2.22967
2.22701
2.22618
2.22597
2.22594
2.22595
2.22597
2.22599
2.22601
2.22602
2.22604
2.22605
2.22606
2.22606
2.22605
2.22604
2.22603
2.22601
2.22599
2.22597
2.22595
2.22593
2.22597
2.22622
2.22717
2.23015
2.23815
2.25581
2.35169
2.33132
2.32309
2.32017
2.31926
2.31903
2.31899
2.31901
2.31903
2.31905
2.31907
2.31909
2.31911
2.31912
2.31913
2.31913
2.31912
2.31911
2.3191
2.31908
2.31906
2.31903
2.319
2.31899
2.31903
2.3193
2.32034
2.32363
2.33244
2.35193
2.44597
2.42362
2.41463
2.41144
2.41046
2.4102
2.41016
2.41018
2.4102
2.41023
2.41025
2.41028
2.4103
2.41031
2.41032
2.41032
2.41031
2.4103
2.41029
2.41026
2.41023
2.4102
2.41017
2.41016
2.41021
2.41051
2.41164
2.41522
2.42485
2.44621
2.53848
2.5141
2.50434
2.50089
2.49982
2.49955
2.49951
2.49952
2.49956
2.49959
2.49962
2.49965
2.49967
2.49969
2.49969
2.49969
2.49968
2.49967
2.49965
2.49963
2.49959
2.49956
2.49953
2.49951
2.49957
2.49989
2.50111
2.505
2.51546
2.5387
2.62928
2.60285
2.5923
2.58858
2.58744
2.58714
2.5871
2.58712
2.58716
2.58719
2.58723
2.58726
2.58729
2.5873
2.58731
2.58731
2.5873
2.58729
2.58726
2.58723
2.5872
2.58716
2.58713
2.58711
2.58717
2.58751
2.58883
2.59302
2.60432
2.62949
2.7185
2.68997
2.67861
2.67462
2.6734
2.67308
2.67304
2.67306
2.6731
2.67314
2.67318
2.67321
2.67324
2.67326
2.67327
2.67327
2.67326
2.67324
2.67321
2.67318
2.67314
2.6731
2.67306
2.67305
2.67311
2.67348
2.67489
2.67939
2.69156
2.7187
2.80634
2.77568
2.76349
2.75921
2.7579
2.75756
2.75751
2.75754
2.75758
2.75762
2.75766
2.7577
2.75773
2.75775
2.75776
2.75776
2.75775
2.75773
2.7577
2.75766
2.75762
2.75758
2.75754
2.75752
2.75758
2.75798
2.7595
2.76434
2.7774
2.80655
2.89323
2.86043
2.84741
2.84283
2.84141
2.84104
2.84098
2.84101
2.84105
2.8411
2.84114
2.84118
2.84121
2.84124
2.84125
2.84125
2.84124
2.84122
2.84119
2.84114
2.8411
2.84105
2.841
2.84098
2.84106
2.8415
2.84314
2.84835
2.86235
2.89352
2.97971
2.94504
2.93127
2.92639
2.92485
2.92443
2.92436
2.92438
2.92442
2.92447
2.92451
2.92455
2.92458
2.92461
2.92462
2.92463
2.92462
2.92459
2.92456
2.92451
2.92446
2.92441
2.92437
2.92435
2.92445
2.92494
2.92674
2.93234
2.94728
2.98037
3.06541
3.02986
3.01572
3.01061
3.00894
3.00846
3.00835
3.00837
3.0084
3.00845
3.00848
3.00852
3.00855
3.00858
3.0086
3.0086
3.00859
3.00857
3.00853
3.00848
3.00843
3.00838
3.00835
3.00834
3.00846
3.00903
3.01102
3.017
3.03268
3.06712
3.14494
3.11095
3.09712
3.09192
3.09014
3.08959
3.08945
3.08944
3.08947
3.08951
3.08954
3.08957
3.0896
3.08963
3.08965
3.08965
3.08964
3.08961
3.08958
3.08954
3.08949
3.08945
3.08941
3.08943
3.08959
3.09024
3.09238
3.09861
3.1145
3.14881
0.0501963
0.0502776
0.050276
0.0502621
0.05025
0.0502435
0.0502382
0.0502341
0.0502257
0.0502151
0.0502113
0.0502178
0.0502262
0.0502275
0.0502244
0.0502253
0.0502289
0.0502297
0.050229
0.0502301
0.0502322
0.0502342
0.0502348
0.0502342
0.0502366
0.0502434
0.0502524
0.050263
0.0502589
0.0501864
0.200795
0.200677
0.200513
0.200442
0.200426
0.200429
0.200434
0.20043
0.200419
0.200406
0.200401
0.200402
0.200404
0.200403
0.2004
0.200402
0.200406
0.20041
0.200414
0.200418
0.200421
0.200423
0.200421
0.200418
0.200416
0.20042
0.200437
0.200497
0.200648
0.200771
0.325546
0.325283
0.325068
0.324962
0.324925
0.324914
0.324909
0.324901
0.324887
0.324873
0.324864
0.32486
0.324856
0.324852
0.324851
0.324853
0.324857
0.324861
0.324866
0.324871
0.324878
0.324883
0.324887
0.324891
0.324898
0.324914
0.324953
0.32505
0.325256
0.325497
0.450778
0.450342
0.450071
0.449948
0.449897
0.449877
0.449869
0.449858
0.449844
0.44983
0.449819
0.449813
0.449808
0.449805
0.449805
0.449807
0.449811
0.449815
0.449818
0.449823
0.449831
0.449838
0.449844
0.44985
0.449861
0.449884
0.449933
0.450047
0.450302
0.450673
0.574738
0.573985
0.573596
0.57344
0.573379
0.573353
0.57334
0.573329
0.573316
0.573304
0.573295
0.57329
0.573287
0.573286
0.573288
0.57329
0.573293
0.573295
0.573298
0.573303
0.573312
0.57332
0.573326
0.573333
0.573345
0.57337
0.573425
0.573566
0.573936
0.574589
0.696689
0.695419
0.69482
0.694605
0.694528
0.694497
0.694481
0.694469
0.694458
0.69445
0.694446
0.694443
0.694443
0.694444
0.694445
0.694445
0.694445
0.694444
0.694447
0.694453
0.694463
0.694472
0.694479
0.694487
0.694501
0.694528
0.694596
0.694799
0.695385
0.696543
0.816335
0.814324
0.813423
0.813112
0.813013
0.812976
0.812958
0.812946
0.812939
0.812933
0.81293
0.812927
0.812927
0.812927
0.812925
0.812922
0.812918
0.812916
0.812919
0.812927
0.812939
0.81295
0.812959
0.81297
0.812985
0.813016
0.813112
0.813423
0.814338
0.816243
0.933378
0.930399
0.929097
0.928651
0.928513
0.928467
0.928445
0.928433
0.928426
0.928421
0.928416
0.928413
0.928411
0.92841
0.928406
0.9284
0.928393
0.928391
0.928396
0.928405
0.928417
0.928429
0.92844
0.928453
0.92847
0.928514
0.928655
0.929123
0.930483
0.933387
1.04755
1.04338
1.04157
1.04095
1.04076
1.0407
1.04068
1.04066
1.04066
1.04065
1.04064
1.04064
1.04064
1.04063
1.04063
1.04062
1.04062
1.04062
1.04062
1.04063
1.04064
1.04065
1.04066
1.04068
1.0407
1.04076
1.04096
1.04163
1.04355
1.0477
1.15864
1.15306
1.15067
1.14983
1.14958
1.1495
1.14947
1.14946
1.14945
1.14944
1.14943
1.14943
1.14943
1.14943
1.14943
1.14943
1.14942
1.14942
1.14943
1.14944
1.14944
1.14945
1.14946
1.14947
1.1495
1.14958
1.14985
1.15077
1.15336
1.15897
1.26652
1.25935
1.2563
1.25521
1.25488
1.25479
1.25476
1.25475
1.25474
1.25473
1.25472
1.25472
1.25472
1.25473
1.25473
1.25472
1.25472
1.25472
1.25473
1.25473
1.25474
1.25474
1.25475
1.25476
1.25479
1.25488
1.25525
1.25646
1.2598
1.26705
1.37113
1.36221
1.35844
1.35708
1.35667
1.35656
1.35654
1.35653
1.35652
1.35651
1.3565
1.3565
1.35651
1.35651
1.35651
1.35651
1.35651
1.35651
1.35652
1.35652
1.35652
1.35652
1.35652
1.35653
1.35655
1.35667
1.35714
1.35867
1.36284
1.37191
1.47251
1.46171
1.45716
1.45551
1.455
1.45487
1.45484
1.45484
1.45484
1.45484
1.45483
1.45484
1.45484
1.45484
1.45485
1.45485
1.45485
1.45485
1.45485
1.45485
1.45484
1.45484
1.45484
1.45483
1.45486
1.455
1.45558
1.45745
1.46252
1.47353
1.57071
1.55791
1.55254
1.55059
1.54998
1.54982
1.5498
1.5498
1.54981
1.54981
1.54982
1.54982
1.54983
1.54983
1.54983
1.54984
1.54984
1.54984
1.54983
1.54982
1.54981
1.54981
1.54979
1.54979
1.54981
1.54999
1.55069
1.55292
1.55892
1.57198
1.66581
1.65093
1.64472
1.64245
1.64174
1.64156
1.64153
1.64154
1.64155
1.64157
1.64157
1.64158
1.64159
1.64159
1.6416
1.6416
1.6416
1.6416
1.64159
1.64157
1.64156
1.64155
1.64153
1.64151
1.64155
1.64176
1.64258
1.64518
1.65215
1.66735
1.75793
1.7409
1.73383
1.73124
1.73042
1.73021
1.73018
1.7302
1.73022
1.73024
1.73025
1.73026
1.73027
1.73027
1.73028
1.73028
1.73028
1.73027
1.73026
1.73024
1.73022
1.7302
1.73018
1.73017
1.73021
1.73046
1.73141
1.73438
1.74233
1.75974
1.84718
1.82794
1.82
1.8171
1.81618
1.81594
1.81591
1.81592
1.81595
1.81597
1.81598
1.816
1.81601
1.81602
1.81602
1.81602
1.81602
1.81601
1.81599
1.81598
1.81596
1.81593
1.8159
1.81589
1.81594
1.81622
1.81729
1.82065
1.8296
1.84926
1.93368
1.9122
1.90339
1.90017
1.89915
1.89889
1.89884
1.89886
1.89889
1.89891
1.89893
1.89895
1.89896
1.89897
1.89898
1.89898
1.89897
1.89896
1.89895
1.89893
1.8989
1.89887
1.89884
1.89883
1.89888
1.8992
1.9004
1.90413
1.91409
1.93604
2.01757
1.99382
1.98413
1.98061
1.97949
1.97919
1.97914
1.97916
1.97919
1.97922
1.97924
1.97926
1.97928
1.97929
1.9793
1.9793
1.9793
1.97928
1.97927
1.97924
1.97921
1.97918
1.97914
1.97912
1.97918
1.97954
1.98086
1.98497
1.99594
2.0202
2.09897
2.07294
2.06237
2.05854
2.05732
2.057
2.05694
2.05696
2.057
2.05702
2.05705
2.05707
2.0571
2.05712
2.05713
2.05713
2.05712
2.05711
2.05709
2.05706
2.05703
2.05699
2.05695
2.05693
2.05699
2.05738
2.05882
2.0633
2.07529
2.10188
2.178
2.14967
2.13823
2.1341
2.13279
2.13244
2.13238
2.1324
2.13243
2.13247
2.1325
2.13253
2.13256
2.13258
2.13259
2.13259
2.13258
2.13257
2.13254
2.13251
2.13247
2.13243
2.13238
2.13236
2.13244
2.13285
2.1344
2.13926
2.15226
2.18119
2.25479
2.22414
2.21184
2.20742
2.20602
2.20564
2.20558
2.2056
2.20563
2.20567
2.20571
2.20575
2.20578
2.20581
2.20582
2.20582
2.20581
2.20579
2.20576
2.20573
2.20568
2.20563
2.20559
2.20556
2.20564
2.20609
2.20775
2.21296
2.22697
2.25824
2.32944
2.29648
2.28332
2.27861
2.27712
2.27672
2.27665
2.27668
2.27672
2.27676
2.27681
2.27685
2.27689
2.27691
2.27693
2.27693
2.27692
2.27689
2.27686
2.27682
2.27677
2.27672
2.27667
2.27664
2.27673
2.2772
2.27897
2.28454
2.29955
2.33316
2.4021
2.36683
2.3528
2.3478
2.34623
2.3458
2.34573
2.34576
2.34581
2.34586
2.34591
2.34596
2.346
2.34603
2.34604
2.34604
2.34603
2.346
2.34596
2.34591
2.34585
2.3458
2.34575
2.34573
2.34581
2.34632
2.3482
2.35411
2.37013
2.40609
2.47297
2.43536
2.42047
2.41518
2.41351
2.41306
2.41298
2.41301
2.41306
2.41312
2.41317
2.41323
2.41327
2.4133
2.41332
2.41332
2.4133
2.41327
2.41322
2.41317
2.41311
2.41305
2.413
2.41298
2.41307
2.4136
2.41559
2.42187
2.43891
2.47723
2.54241
2.50245
2.48666
2.48106
2.47929
2.47881
2.47873
2.47876
2.47881
2.47887
2.47893
2.47899
2.47903
2.47907
2.47908
2.47908
2.47906
2.47903
2.47898
2.47892
2.47886
2.4788
2.47874
2.47872
2.47882
2.47939
2.4815
2.48817
2.50626
2.54698
2.61119
2.5689
2.55219
2.54625
2.54435
2.54383
2.54373
2.54376
2.54382
2.54388
2.54394
2.544
2.54404
2.54408
2.5441
2.5441
2.54408
2.54405
2.544
2.54393
2.54386
2.54379
2.54374
2.54372
2.54383
2.54445
2.54672
2.55383
2.57304
2.61618
2.68082
2.63647
2.61891
2.61259
2.61054
2.60995
2.60983
2.60985
2.6099
2.60996
2.61002
2.61008
2.61012
2.61016
2.61019
2.61019
2.61017
2.61014
2.61008
2.61001
2.60994
2.60987
2.60982
2.6098
2.60994
2.61064
2.61312
2.62075
2.64112
2.6866
2.75365
2.70835
2.6903
2.68365
2.6814
2.68072
2.68056
2.68056
2.68061
2.68067
2.68072
2.68077
2.68082
2.68086
2.68089
2.68089
2.68087
2.68083