/*--------------------------------*- C++ -*----------------------------------*\
| =========                 |                                                 |
| \\      /  F ield         | OpenFOAM: The Open Source CFD Toolbox           |
|  \\    /   O peration     | Version:  2506                                  |
|   \\  /    A nd           | Website:  www.openfoam.com                      |
|    \\/     M anipulation  |                                                 |
\*---------------------------------------------------------------------------*/
FoamFile
{
    version     2.0;
    format      ascii;
    arch        "LSB;label=32;scalar=64";
    class       volScalarField;
    location    "10";
    object      p;
}
// * * * * * * * * * * * * * * * * * * * * * * * * * * * * * * * * * * * * * //

dimensions      [0 2 -2 0 0 0 0];

internalField   nonuniform List<scalar> 
144676
(
-6.96252
-6.95943
-6.95377
-6.94419
-6.93315
-6.92208
-6.91155
-6.90184
-6.89304
-6.8853
-6.87885
-6.87394
-6.87045
-6.86818
-6.86698
-6.86697
-6.86822
-6.87068
-6.87433
-6.87923
-6.88542
-6.89272
-6.90096
-6.9101
-6.92008
-6.93066
-6.94126
-6.9505
-6.95591
-6.95887
-6.95519
-6.95141
-6.94606
-6.93643
-6.92538
-6.91437
-6.90393
-6.89429
-6.88552
-6.87782
-6.87153
-6.86676
-6.86335
-6.861
-6.85975
-6.85973
-6.86096
-6.86334
-6.86693
-6.87186
-6.87804
-6.88524
-6.89338
-6.90245
-6.91239
-6.92302
-6.93371
-6.943
-6.94814
-6.95168
-6.94251
-6.93949
-6.93457
-6.92506
-6.91413
-6.90326
-6.89308
-6.88374
-6.87534
-6.868
-6.86203
-6.85743
-6.85401
-6.85161
-6.85035
-6.85031
-6.85143
-6.85367
-6.85714
-6.86192
-6.86788
-6.87489
-6.88287
-6.8918
-6.9016
-6.91209
-6.9227
-6.93196
-6.9367
-6.93948
-6.94842
-6.94547
-6.94044
-6.93102
-6.92018
-6.90957
-6.89971
-6.89082
-6.88289
-6.87603
-6.87041
-6.86599
-6.8626
-6.86023
-6.85898
-6.85888
-6.85986
-6.86193
-6.86523
-6.86979
-6.87548
-6.88225
-6.89002
-6.89868
-6.90819
-6.91839
-6.92883
-6.93807
-6.94298
-6.94571
-6.9776
-6.97452
-6.96939
-6.96016
-6.94965
-6.9394
-6.93004
-6.92169
-6.9143
-6.90803
-6.90286
-6.89876
-6.89557
-6.89333
-6.89214
-6.89194
-6.89272
-6.89458
-6.89764
-6.90187
-6.90724
-6.91369
-6.92109
-6.92934
-6.93836
-6.94803
-6.95807
-6.96701
-6.97205
-6.97509
-7.02658
-7.02362
-7.01856
-7.00992
-7.00009
-6.99061
-6.98196
-6.97426
-6.96759
-6.962
-6.95751
-6.95392
-6.95113
-6.94914
-6.94799
-6.94764
-6.94815
-6.9497
-6.9524
-6.95623
-6.96118
-6.96716
-6.97403
-6.98169
-6.99002
-6.99897
-7.00829
-7.01654
-7.02145
-7.02452
-7.0945
-7.09187
-7.08724
-7.07969
-7.07115
-7.06285
-7.0552
-7.04834
-7.0425
-7.03778
-7.03411
-7.03119
-7.02889
-7.02719
-7.02608
-7.02552
-7.02569
-7.02685
-7.02908
-7.0324
-7.03679
-7.04214
-7.04832
-7.05523
-7.06273
-7.07079
-7.07908
-7.08626
-7.0907
-7.09347
-7.18069
-7.17864
-7.17495
-7.1691
-7.16239
-7.1557
-7.14926
-7.1434
-7.13846
-7.13468
-7.1318
-7.12954
-7.12775
-7.12638
-7.12534
-7.12462
-7.12449
-7.12524
-7.12697
-7.1297
-7.13337
-7.13789
-7.14322
-7.1492
-7.15565
-7.16254
-7.16943
-7.17518
-7.1788
-7.18089
-7.28407
-7.28294
-7.2806
-7.27688
-7.27239
-7.26751
-7.26246
-7.25768
-7.2537
-7.25074
-7.24853
-7.24685
-7.24558
-7.24463
-7.2438
-7.2431
-7.24284
-7.2433
-7.24456
-7.24662
-7.24942
-7.25292
-7.25716
-7.26191
-7.26701
-7.27241
-7.27751
-7.28151
-7.28397
-7.28514
-7.40294
-7.40284
-7.40204
-7.40065
-7.39855
-7.39567
-7.39221
-7.38866
-7.38568
-7.38345
-7.38185
-7.38073
-7.38007
-7.37967
-7.37924
-7.37879
-7.37859
-7.37887
-7.37969
-7.381
-7.38274
-7.38504
-7.38793
-7.39116
-7.39464
-7.39821
-7.40119
-7.40316
-7.40424
-7.40444
-7.53472
-7.53558
-7.53639
-7.53741
-7.53783
-7.53719
-7.53557
-7.53351
-7.53167
-7.53027
-7.52934
-7.52889
-7.52895
-7.52919
-7.52928
-7.52918
-7.52911
-7.52922
-7.52951
-7.52992
-7.53051
-7.53151
-7.53292
-7.53447
-7.5361
-7.53755
-7.53815
-7.53788
-7.53745
-7.53668
-7.67657
-7.67839
-7.68083
-7.68433
-7.68741
-7.68918
-7.68963
-7.68934
-7.68886
-7.68855
-7.6885
-7.6889
-7.6897
-7.69056
-7.6911
-7.69125
-7.6912
-7.69099
-7.69061
-7.69004
-7.68947
-7.68919
-7.68912
-7.68894
-7.68857
-7.68768
-7.6857
-7.68306
-7.68101
-7.67915
-7.82605
-7.82902
-7.83316
-7.83912
-7.84476
-7.84894
-7.85158
-7.85321
-7.85439
-7.85544
-7.85654
-7.85787
-7.85937
-7.86068
-7.86145
-7.86166
-7.86143
-7.86077
-7.85965
-7.85813
-7.85648
-7.85503
-7.85354
-7.8516
-7.84913
-7.84578
-7.84115
-7.83605
-7.83219
-7.829
-7.98133
-7.98561
-7.99138
-7.99956
-8.00762
-8.01405
-8.01888
-8.02253
-8.02556
-8.02816
-8.03051
-8.03272
-8.03476
-8.03632
-8.03716
-8.0373
-8.03683
-8.03569
-8.03388
-8.03151
-8.02893
-8.0264
-8.02352
-8.01981
-8.01522
-8.00945
-8.00221
-7.99453
-7.98863
-7.98404
-8.14024
-8.14581
-8.15305
-8.16334
-8.17368
-8.18236
-8.18933
-8.19502
-8.19985
-8.20397
-8.20746
-8.2104
-8.21284
-8.21456
-8.21545
-8.21553
-8.21483
-8.21328
-8.21089
-8.20783
-8.20447
-8.20094
-8.1967
-8.19126
-8.18463
-8.17655
-8.16672
-8.15633
-8.14833
-8.14246
-8.30009
-8.30675
-8.31547
-8.32803
-8.34083
-8.35184
-8.36088
-8.36844
-8.37487
-8.38029
-8.38469
-8.38824
-8.39103
-8.39296
-8.39392
-8.39394
-8.39302
-8.39111
-8.38827
-8.38469
-8.38067
-8.37622
-8.3707
-8.36361
-8.35503
-8.34468
-8.33218
-8.31909
-8.30919
-8.30206
-8.45783
-8.46549
-8.47597
-8.49114
-8.50673
-8.52006
-8.53103
-8.54016
-8.54791
-8.55437
-8.55956
-8.56367
-8.56686
-8.56903
-8.57008
-8.57003
-8.5689
-8.56672
-8.56358
-8.5596
-8.55501
-8.54971
-8.54301
-8.5344
-8.52388
-8.51116
-8.49594
-8.48031
-8.46862
-8.46009
-8.61102
-8.61982
-8.63238
-8.65048
-8.66887
-8.6844
-8.69702
-8.70746
-8.71636
-8.72376
-8.72973
-8.73445
-8.73809
-8.74054
-8.74171
-8.74164
-8.74039
-8.73806
-8.7347
-8.73036
-8.72516
-8.71901
-8.71119
-8.7011
-8.6886
-8.67345
-8.6556
-8.63749
-8.62393
-8.61402
-8.75797
-8.76809
-8.78287
-8.80387
-8.82481
-8.84225
-8.85631
-8.86802
-8.87806
-8.8865
-8.89333
-8.89874
-8.90287
-8.90565
-8.90698
-8.90694
-8.90564
-8.90317
-8.89956
-8.89475
-8.88884
-8.88176
-8.8728
-8.86123
-8.84685
-8.82947
-8.80906
-8.78838
-8.77299
-8.76199
-8.89736
-8.90893
-8.92578
-8.94923
-8.97243
-8.99161
-9.00716
-9.02028
-9.03161
-9.04121
-9.04895
-9.055
-9.05956
-9.06257
-9.06397
-9.06389
-9.06249
-9.05984
-9.05591
-9.05058
-9.04391
-9.03579
-9.02561
-9.01268
-8.9967
-8.97732
-8.9544
-8.93117
-8.91416
-8.90231
-9.02735
-9.04027
-9.05882
-9.08445
-9.10977
-9.13082
-9.14808
-9.16272
-9.17543
-9.18613
-9.19467
-9.20126
-9.2061
-9.20917
-9.21052
-9.21035
-9.20885
-9.20603
-9.20181
-9.19604
-9.18862
-9.1794
-9.16795
-9.15375
-9.13634
-9.11508
-9.08972
-9.06404
-9.04553
-9.03283
-9.14548
-9.1595
-9.17949
-9.2073
-9.23486
-9.25796
-9.27698
-9.29316
-9.30716
-9.31888
-9.32821
-9.33531
-9.34037
-9.34347
-9.34473
-9.34447
-9.34291
-9.34001
-9.3356
-9.32946
-9.32131
-9.31096
-9.29821
-9.28268
-9.26382
-9.2407
-9.21295
-9.18492
-9.16485
-9.15127
-9.24879
-9.26373
-9.28525
-9.31524
-9.34522
-9.3704
-9.39118
-9.40891
-9.42418
-9.437
-9.44722
-9.45488
-9.46018
-9.46328
-9.46444
-9.46414
-9.46265
-9.45977
-9.45526
-9.44878
-9.43987
-9.42832
-9.41418
-9.39727
-9.37689
-9.35188
-9.32183
-9.29153
-9.26987
-9.25523
-9.33464
-9.35048
-9.37353
-9.40592
-9.43833
-9.46562
-9.48822
-9.50744
-9.52399
-9.5379
-9.54895
-9.55713
-9.56265
-9.56578
-9.56696
-9.56682
-9.56554
-9.56277
-9.55811
-9.5511
-9.54125
-9.52848
-9.51302
-9.49469
-9.47271
-9.44583
-9.41366
-9.38119
-9.35787
-9.342
-9.4007
-9.41751
-9.44219
-9.47705
-9.51188
-9.54125
-9.56554
-9.58612
-9.60374
-9.61849
-9.63023
-9.63889
-9.64469
-9.648
-9.64942
-9.64958
-9.64855
-9.64579
-9.64073
-9.63295
-9.62212
-9.60828
-9.59155
-9.57174
-9.54811
-9.51949
-9.48534
-9.45074
-9.4258
-9.40881
-9.4445
-9.4624
-9.48883
-9.52596
-9.56307
-9.59428
-9.62003
-9.64173
-9.66012
-9.67552
-9.6879
-9.69714
-9.70341
-9.70714
-9.70891
-9.70933
-9.70837
-9.70541
-9.69983
-9.69128
-9.67956
-9.66465
-9.64661
-9.62529
-9.60016
-9.56997
-9.5339
-9.49732
-9.47106
-9.45317
-9.46434
-9.48365
-9.51145
-9.55065
-9.58978
-9.6226
-9.64962
-9.67219
-9.69117
-9.70721
-9.72032
-9.73029
-9.73716
-9.74126
-9.74323
-9.74372
-9.74272
-9.73954
-9.73346
-9.72416
-9.71152
-9.69553
-9.67627
-9.65372
-9.62737
-9.59577
-9.55801
-9.51985
-9.49262
-9.47366
-9.46545
-9.48595
-9.51473
-9.55568
-9.59647
-9.63058
-9.65857
-9.68181
-9.7014
-9.71811
-9.73189
-9.74242
-9.74962
-9.75389
-9.75602
-9.75665
-9.75559
-9.7521
-9.74549
-9.73549
-9.72205
-9.70522
-9.6851
-9.66171
-9.63446
-9.60175
-9.56273
-9.52349
-9.49565
-9.47564
-9.45431
-9.47556
-9.50504
-9.54705
-9.58887
-9.62377
-9.65247
-9.67635
-9.69654
-9.71366
-9.72774
-9.73855
-9.74598
-9.75044
-9.75273
-9.75332
-9.75199
-9.74809
-9.74108
-9.7307
-9.71688
-9.6996
-9.67899
-9.65508
-9.6272
-9.59378
-9.55397
-9.51407
-9.48602
-9.46536
-9.41272
-9.44217
-9.47275
-9.51592
-9.55863
-9.59416
-9.62344
-9.6478
-9.66818
-9.68531
-9.69951
-9.71048
-9.71802
-9.72258
-9.72491
-9.72536
-9.72374
-9.71963
-9.71254
-9.70211
-9.68814
-9.67063
-9.64981
-9.62567
-9.59749
-9.56363
-9.52294
-9.48187
-9.45287
-9.42409
-6.93695
-6.9349
-6.92842
-6.91684
-6.90463
-6.89289
-6.88203
-6.87213
-6.86318
-6.85533
-6.8489
-6.844
-6.84049
-6.83813
-6.83692
-6.83697
-6.83829
-6.84079
-6.84451
-6.84953
-6.85577
-6.86308
-6.87141
-6.88075
-6.8911
-6.90231
-6.91396
-6.925
-6.93113
-6.93299
-6.93781
-6.93579
-6.92986
-6.91801
-6.90574
-6.89412
-6.88344
-6.87365
-6.86479
-6.85704
-6.85076
-6.84599
-6.8425
-6.84011
-6.83889
-6.83893
-6.84019
-6.84261
-6.84629
-6.85127
-6.85744
-6.86467
-6.87293
-6.88221
-6.89251
-6.90371
-6.91547
-6.9268
-6.93234
-6.93412
-6.92804
-6.92669
-6.92087
-6.90892
-6.89667
-6.88528
-6.87487
-6.86544
-6.85693
-6.84956
-6.84355
-6.83891
-6.83541
-6.83301
-6.83179
-6.83179
-6.83293
-6.83522
-6.83876
-6.84356
-6.84954
-6.85662
-6.86475
-6.87388
-6.88401
-6.89504
-6.90682
-6.91833
-6.92381
-6.92497
-6.93675
-6.93459
-6.92809
-6.91605
-6.90387
-6.8927
-6.88264
-6.87362
-6.86557
-6.85865
-6.85295
-6.84846
-6.84502
-6.84265
-6.84144
-6.84134
-6.84232
-6.84446
-6.84784
-6.85243
-6.85821
-6.86511
-6.87301
-6.88188
-6.89169
-6.90243
-6.91412
-6.92568
-6.93193
-6.93398
-6.96973
-6.96674
-6.95983
-6.94815
-6.93636
-6.92561
-6.91603
-6.90752
-6.90005
-6.89366
-6.88846
-6.88427
-6.88105
-6.87883
-6.8776
-6.87735
-6.87813
-6.88007
-6.88322
-6.88756
-6.89306
-6.89964
-6.90717
-6.91557
-6.92484
-6.93508
-6.94627
-6.95735
-6.96403
-6.9671
-7.02064
-7.01738
-7.01056
-6.99979
-6.98892
-6.97903
-6.97017
-6.9623
-6.95555
-6.94994
-6.94542
-6.94179
-6.93896
-6.93693
-6.93569
-6.93524
-6.93575
-6.93739
-6.9402
-6.94417
-6.94925
-6.95534
-6.96232
-6.9701
-6.97869
-6.98818
-6.99845
-7.00855
-7.01513
-7.01852
-7.09001
-7.08682
-7.08066
-7.07152
-7.06224
-7.05362
-7.04574
-7.03875
-7.03287
-7.02823
-7.02455
-7.0216
-7.01923
-7.01745
-7.01618
-7.01551
-7.01569
-7.01694
-7.0193
-7.02275
-7.02725
-7.03269
-7.03899
-7.04603
-7.05378
-7.06228
-7.07126
-7.07993
-7.08586
-7.08902
-7.17771
-7.17511
-7.17026
-7.1634
-7.15622
-7.14926
-7.14257
-7.13657
-7.13169
-7.12799
-7.12512
-7.12281
-7.12095
-7.11948
-7.11828
-7.11747
-7.11737
-7.11823
-7.1201
-7.12294
-7.12669
-7.13131
-7.13675
-7.14282
-7.14949
-7.15668
-7.16399
-7.17082
-7.17556
-7.17804
-7.28293
-7.28128
-7.27821
-7.27401
-7.26927
-7.26411
-7.25879
-7.25389
-7.25
-7.24708
-7.24488
-7.24314
-7.24184
-7.24082
-7.23989
-7.23916
-7.23898
-7.23958
-7.24099
-7.24313
-7.24597
-7.24956
-7.25385
-7.25862
-7.26389
-7.26946
-7.27475
-7.27933
-7.28248
-7.28403
-7.40377
-7.40325
-7.40214
-7.40075
-7.39857
-7.39543
-7.39168
-7.38805
-7.38513
-7.38294
-7.3813
-7.38015
-7.37951
-7.37911
-7.37867
-7.37826
-7.3782
-7.37865
-7.37959
-7.38091
-7.38267
-7.38501
-7.38788
-7.39109
-7.39469
-7.3983
-7.40125
-7.40328
-7.40467
-7.40526
-7.53748
-7.53805
-7.53895
-7.54046
-7.54098
-7.54014
-7.53827
-7.53618
-7.53437
-7.533
-7.53201
-7.53156
-7.53166
-7.53196
-7.53209
-7.53207
-7.53215
-7.53241
-7.53275
-7.53313
-7.5337
-7.53471
-7.53606
-7.53759
-7.53931
-7.54069
-7.54104
-7.54037
-7.53989
-7.5394
-7.68107
-7.68284
-7.68585
-7.69027
-7.69363
-7.69525
-7.69555
-7.69524
-7.69484
-7.69452
-7.69442
-7.69482
-7.69568
-7.6966
-7.69717
-7.6974
-7.69746
-7.69733
-7.69694
-7.69629
-7.69569
-7.69544
-7.69533
-7.69515
-7.69483
-7.69378
-7.69141
-7.68792
-7.68538
-7.68355
-7.83231
-7.83545
-7.84055
-7.84781
-7.85392
-7.85801
-7.86057
-7.86225
-7.86354
-7.86458
-7.86563
-7.86693
-7.86846
-7.86978
-7.87056
-7.87082
-7.87067
-7.87004
-7.86887
-7.86724
-7.86561
-7.86423
-7.86273
-7.86082
-7.85837
-7.85485
-7.84969
-7.84322
-7.83832
-7.83502
-7.98932
-7.99392
-8.001
-8.01086
-8.01949
-8.02597
-8.03078
-8.03457
-8.0377
-8.04028
-8.04253
-8.04467
-8.04669
-8.04824
-8.04908
-8.04928
-8.04887
-8.04775
-8.04587
-8.04343
-8.04093
-8.03851
-8.03564
-8.03199
-8.02748
-8.02157
-8.01359
-8.00396
-7.99653
-7.99173
-8.14983
-8.15577
-8.16472
-8.1771
-8.18827
-8.19709
-8.2041
-8.20994
-8.21484
-8.21888
-8.22217
-8.225
-8.2274
-8.22914
-8.23005
-8.2302
-8.22954
-8.228
-8.22555
-8.22246
-8.21924
-8.21585
-8.21163
-8.20632
-8.19985
-8.19162
-8.18079
-8.16797
-8.15801
-8.1517
-8.31096
-8.31816
-8.3291
-8.34424
-8.35816
-8.36938
-8.37848
-8.38609
-8.39252
-8.39774
-8.40188
-8.40529
-8.40806
-8.41002
-8.41102
-8.41107
-8.41016
-8.40826
-8.4054
-8.40185
-8.39802
-8.39374
-8.38826
-8.38136
-8.37299
-8.36242
-8.34872
-8.33282
-8.32045
-8.3125
-8.46971
-8.47825
-8.49158
-8.50993
-8.52679
-8.54035
-8.55128
-8.56036
-8.568
-8.57417
-8.57907
-8.58304
-8.58623
-8.58843
-8.5895
-8.58944
-8.58832
-8.5862
-8.58311
-8.57922
-8.57484
-8.56971
-8.56307
-8.55465
-8.54432
-8.53131
-8.51476
-8.49596
-8.48124
-8.47159
-8.62384
-8.63396
-8.65001
-8.67174
-8.69152
-8.70718
-8.71961
-8.72996
-8.73866
-8.74579
-8.75149
-8.7561
-8.75977
-8.76228
-8.76345
-8.76336
-8.76216
-8.75993
-8.75667
-8.75241
-8.74739
-8.74138
-8.73363
-8.72371
-8.71138
-8.69592
-8.67665
-8.65502
-8.63797
-8.62679
-8.77193
-8.78386
-8.80268
-8.82756
-8.84989
-8.86735
-8.88119
-8.89281
-8.90274
-8.91097
-8.91758
-8.92289
-8.92704
-8.92983
-8.93112
-8.93104
-8.92976
-8.9274
-8.92388
-8.91912
-8.9133
-8.90634
-8.89749
-8.88612
-8.87193
-8.85431
-8.83246
-8.80797
-8.78874
-8.77634
-8.91268
-8.92637
-8.94762
-8.97525
-8.99984
-9.01905
-9.03447
-9.04757
-9.0589
-9.06829
-9.07575
-9.08165
-9.08615
-9.08909
-9.09039
-9.09024
-9.08885
-9.0863
-9.08248
-9.07718
-9.07054
-9.06256
-9.05257
-9.03988
-9.02416
-9.00463
-8.98023
-8.95293
-8.93179
-8.9183
-9.04414
-9.05935
-9.08267
-9.11276
-9.13963
-9.16082
-9.17799
-9.19266
-9.20531
-9.21572
-9.22393
-9.23031
-9.23504
-9.238
-9.23922
-9.23897
-9.23748
-9.23478
-9.23071
-9.22497
-9.21756
-9.2085
-9.19732
-9.1834
-9.16627
-9.14486
-9.11793
-9.088
-9.06499
-9.05033
-9.16351
-9.18
-9.20526
-9.23787
-9.26717
-9.29043
-9.30935
-9.32556
-9.33947
-9.35096
-9.36001
-9.36689
-9.3718
-9.37471
-9.37577
-9.37543
-9.37393
-9.37122
-9.36703
-9.36097
-9.35284
-9.34265
-9.33017
-9.31494
-9.29631
-9.273
-9.24367
-9.21114
-9.18603
-9.16999
-9.26788
-9.28557
-9.3128
-9.34807
-9.37988
-9.40525
-9.42601
-9.44376
-9.45902
-9.47167
-9.48161
-9.48901
-9.4941
-9.49691
-9.49784
-9.49758
-9.49632
-9.49376
-9.48951
-9.48308
-9.47414
-9.46273
-9.44884
-9.43217
-9.41201
-9.38686
-9.35516
-9.31988
-9.29244
-9.27484
-9.35476
-9.3737
-9.40307
-9.44109
-9.47552
-9.50307
-9.52565
-9.54487
-9.56137
-9.57509
-9.58586
-9.59379
-9.59905
-9.60186
-9.60291
-9.603
-9.60212
-9.59966
-9.59512
-9.58808
-9.57822
-9.56562
-9.55037
-9.53225
-9.51048
-9.48345
-9.44936
-9.41128
-9.38153
-9.36243
-9.42192
-9.44226
-9.4739
-9.5147
-9.55166
-9.58129
-9.60549
-9.626
-9.64352
-9.65811
-9.66963
-9.6781
-9.68367
-9.68672
-9.68812
-9.6886
-9.68793
-9.68534
-9.68033
-9.67261
-9.66189
-9.6482
-9.63161
-9.61192
-9.58845
-9.55953
-9.5231
-9.48246
-9.4507
-9.43029
-9.4666
-9.48849
-9.52225
-9.56571
-9.60503
-9.63655
-9.66224
-9.68377
-9.70199
-9.7173
-9.7296
-9.73879
-9.74491
-9.74839
-9.75012
-9.75078
-9.7501
-9.74728
-9.7418
-9.73339
-9.72178
-9.70693
-9.68891
-9.66769
-9.64269
-9.61205
-9.57353
-9.53067
-9.49715
-9.47547
-9.48569
-9.50915
-9.54483
-9.59075
-9.63229
-9.66555
-9.69246
-9.71472
-9.73355
-9.74963
-9.76284
-9.77283
-9.77946
-9.78322
-9.78513
-9.78589
-9.78518
-9.78213
-9.77612
-9.76688
-9.75425
-9.73825
-9.71905
-9.69671
-9.67051
-9.63841
-9.59812
-9.55336
-9.51828
-9.49515
-9.48303
-9.50781
-9.54487
-9.59275
-9.63607
-9.67065
-9.69849
-9.72149
-9.74107
-9.75787
-9.77174
-9.78221
-9.78918
-9.79326
-9.79542
-9.79621
-9.79528
-9.79181
-9.78516
-9.77512
-9.76166
-9.74489
-9.725
-9.70192
-9.67478
-9.64151
-9.59987
-9.55371
-9.51773
-9.49341
-9.47278
-9.49656
-9.53336
-9.58223
-9.62665
-9.66217
-9.69089
-9.71469
-9.73478
-9.75185
-9.76603
-9.77688
-9.78418
-9.78845
-9.7906
-9.79113
-9.7898
-9.78591
-9.77889
-9.76851
-9.7547
-9.73756
-9.71723
-9.69356
-9.66569
-9.63171
-9.58931
-9.54252
-9.50721
-9.48404
-9.44079
-9.46808
-9.50399
-9.55398
-9.59948
-9.63582
-9.66519
-9.68929
-9.70938
-9.72652
-9.74088
-9.75192
-9.7594
-9.76383
-9.76596
-9.76624
-9.76463
-9.76057
-9.75347
-9.74297
-9.72901
-9.71169
-9.69115
-9.66717
-9.63895
-9.60455
-9.5613
-9.51343
-9.47904
-9.45217
-6.89526
-6.89111
-6.88026
-6.86503
-6.85099
-6.83826
-6.82685
-6.81662
-6.80744
-6.79944
-6.79291
-6.78794
-6.78431
-6.78185
-6.7806
-6.7807
-6.78213
-6.78482
-6.78872
-6.79385
-6.80016
-6.80759
-6.81616
-6.82589
-6.83684
-6.84903
-6.86238
-6.87682
-6.8871
-6.89112
-6.9141
-6.91066
-6.89987
-6.88399
-6.86987
-6.85735
-6.84617
-6.83609
-6.82701
-6.81916
-6.8128
-6.80796
-6.80434
-6.80187
-6.80062
-6.8007
-6.80209
-6.8047
-6.80853
-6.81358
-6.8198
-6.82717
-6.83566
-6.8453
-6.85619
-6.86832
-6.88181
-6.89686
-6.90696
-6.91018
-6.90651
-6.90274
-6.89104
-6.87463
-6.86044
-6.84815
-6.83725
-6.82752
-6.81881
-6.81132
-6.80524
-6.80049
-6.79689
-6.79441
-6.79317
-6.79319
-6.79444
-6.7969
-6.80058
-6.80546
-6.81155
-6.81879
-6.82714
-6.83663
-6.84733
-6.85932
-6.87291
-6.88854
-6.89964
-6.90309
-6.91939
-6.91383
-6.90113
-6.88458
-6.87044
-6.85835
-6.84782
-6.83848
-6.83026
-6.82318
-6.8174
-6.81277
-6.80923
-6.80681
-6.80554
-6.80545
-6.80652
-6.80881
-6.81233
-6.81707
-6.82303
-6.83011
-6.83823
-6.84743
-6.85779
-6.86949
-6.88296
-6.89869
-6.91094
-6.91628
-6.95669
-6.94989
-6.93716
-6.9214
-6.90781
-6.89624
-6.8862
-6.87741
-6.86977
-6.86329
-6.85795
-6.85364
-6.85032
-6.84801
-6.84672
-6.84646
-6.84733
-6.84943
-6.85275
-6.85728
-6.86298
-6.86972
-6.87742
-6.88611
-6.8959
-6.907
-6.91976
-6.93467
-6.94703
-6.95379
-7.00989
-7.00293
-6.99101
-6.97687
-6.9645
-6.9539
-6.94463
-6.93658
-6.92971
-6.92404
-6.91938
-6.91561
-6.91265
-6.91053
-6.9092
-6.90874
-6.90934
-6.91114
-6.91414
-6.91831
-6.92357
-6.92979
-6.93691
-6.94494
-6.95399
-6.96414
-6.97571
-6.98909
-7.00066
-7.00765
-7.08177
-7.07528
-7.06501
-7.05331
-7.04289
-7.0337
-7.0255
-7.01837
-7.01249
-7.00778
-7.00396
-7.00082
-6.99833
-6.99645
-6.9951
-6.99443
-6.9947
-6.99608
-6.99862
-7.00228
-7.00693
-7.0125
-7.01892
-7.02617
-7.03426
-7.04318
-7.05315
-7.06442
-7.07444
-7.0808
-7.1727
-7.16743
-7.15957
-7.15096
-7.143
-7.13553
-7.12858
-7.12252
-7.11769
-7.11391
-7.11088
-7.10839
-7.10642
-7.10489
-7.10365
-7.10286
-7.10285
-7.10384
-7.10589
-7.10891
-7.11282
-7.11756
-7.12307
-7.12928
-7.13616
-7.14357
-7.1516
-7.16025
-7.16799
-7.17305
-7.28173
-7.27818
-7.27318
-7.268
-7.26268
-7.25712
-7.25157
-7.24669
-7.24283
-7.23986
-7.23748
-7.23561
-7.23427
-7.23325
-7.23234
-7.23167
-7.23158
-7.23233
-7.23391
-7.2362
-7.23918
-7.24285
-7.24714
-7.252
-7.25739
-7.26305
-7.26877
-7.27431
-7.27934
-7.28275
-7.40666
-7.40505
-7.40309
-7.40137
-7.39884
-7.39536
-7.39144
-7.38787
-7.38501
-7.38276
-7.38097
-7.37976
-7.37913
-7.37877
-7.37838
-7.37805
-7.3781
-7.37869
-7.37976
-7.3812
-7.38305
-7.38543
-7.38827
-7.39156
-7.39524
-7.39886
-7.4019
-7.40407
-7.40625
-7.40785
-7.54442
-7.54482
-7.54594
-7.54775
-7.54818
-7.54706
-7.54512
-7.54309
-7.54137
-7.53992
-7.53881
-7.53833
-7.53845
-7.53879
-7.53896
-7.53901
-7.53918
-7.53953
-7.53995
-7.54039
-7.54102
-7.54205
-7.54341
-7.54507
-7.54684
-7.54815
-7.54826
-7.54697
-7.54621
-7.54573
-7.69196
-7.69454
-7.6988
-7.70414
-7.7076
-7.70907
-7.70934
-7.70912
-7.70879
-7.70837
-7.70818
-7.70852
-7.70937
-7.71027
-7.71083
-7.7111
-7.71121
-7.71115
-7.71078
-7.71017
-7.70966
-7.70947
-7.70945
-7.70946
-7.70918
-7.70797
-7.70502
-7.70019
-7.69631
-7.69347
-7.84701
-7.85191
-7.85927
-7.86802
-7.87445
-7.87851
-7.88107
-7.88287
-7.88416
-7.8851
-7.88601
-7.88722
-7.88868
-7.88993
-7.89066
-7.89095
-7.89084
-7.89025
-7.88908
-7.88752
-7.88605
-7.88481
-7.88348
-7.8818
-7.8794
-7.87562
-7.86955
-7.86106
-7.85384
-7.84855
-8.00751
-8.01478
-8.02507
-8.03698
-8.04624
-8.05279
-8.05765
-8.06152
-8.06459
-8.06703
-8.06908
-8.07107
-8.07298
-8.07445
-8.07528
-8.07552
-8.07516
-8.07407
-8.07221
-8.06991
-8.06766
-8.06545
-8.0628
-8.05942
-8.05496
-8.0487
-8.03951
-8.02727
-8.0166
-8.00886
-8.17119
-8.18073
-8.19389
-8.209
-8.22108
-8.23007
-8.23715
-8.24296
-8.24773
-8.2515
-8.25454
-8.25719
-8.25948
-8.26117
-8.26209
-8.26227
-8.26164
-8.26012
-8.25774
-8.25487
-8.25196
-8.24878
-8.24479
-8.23979
-8.23341
-8.22477
-8.21252
-8.19657
-8.18242
-8.17219
-8.33516
-8.34698
-8.36328
-8.38182
-8.3969
-8.40833
-8.41739
-8.42486
-8.43102
-8.43587
-8.43971
-8.44293
-8.4456
-8.44752
-8.44851
-8.44856
-8.44768
-8.44585
-8.44314
-8.43987
-8.43635
-8.43223
-8.42698
-8.42047
-8.41223
-8.40123
-8.386
-8.36649
-8.34895
-8.33616
-8.49668
-8.51101
-8.5308
-8.55311
-8.57128
-8.58497
-8.59569
-8.60452
-8.61177
-8.61754
-8.62211
-8.6259
-8.62901
-8.63119
-8.63222
-8.63214
-8.63109
-8.62912
-8.62623
-8.62262
-8.6185
-8.61351
-8.60713
-8.59914
-8.58897
-8.57557
-8.55749
-8.53467
-8.5138
-8.49845
-8.65375
-8.67087
-8.69434
-8.72047
-8.74154
-8.75716
-8.76931
-8.77933
-8.78768
-8.79444
-8.79984
-8.8043
-8.8079
-8.81034
-8.81142
-8.81129
-8.81015
-8.80811
-8.80504
-8.80101
-8.79623
-8.79039
-8.78294
-8.77344
-8.7613
-8.74563
-8.72495
-8.69894
-8.67483
-8.65709
-8.80498
-8.82492
-8.85203
-8.88158
-8.90517
-8.92252
-8.93611
-8.9475
-8.95718
-8.96507
-8.97136
-8.97648
-8.9805
-8.98313
-8.98423
-8.98403
-8.9828
-8.98064
-8.97733
-8.9728
-8.96728
-8.96059
-8.95203
-8.94104
-8.92715
-8.90956
-8.8864
-8.85725
-8.83017
-8.81022
-8.94891
-8.97156
-9.00185
-9.03442
-9.06033
-9.07954
-9.09481
-9.10779
-9.11886
-9.12781
-9.13486
-9.14046
-9.14473
-9.14743
-9.14848
-9.14819
-9.14689
-9.14462
-9.14105
-9.13601
-9.12974
-9.1221
-9.11236
-9.10004
-9.08474
-9.06537
-9.0397
-9.00755
-8.97772
-8.95553
-9.08331
-9.1084
-9.14149
-9.17698
-9.20534
-9.2266
-9.24366
-9.2582
-9.2705
-9.28042
-9.28815
-9.29419
-9.29865
-9.30134
-9.30231
-9.30199
-9.30068
-9.29833
-9.29454
-9.28906
-9.28202
-9.27332
-9.26242
-9.24889
-9.2322
-9.21095
-9.18276
-9.14771
-9.11504
-9.09043
-9.2054
-9.23266
-9.2686
-9.30705
-9.33799
-9.36136
-9.38021
-9.39625
-9.40982
-9.42078
-9.42931
-9.43582
-9.44044
-9.44306
-9.44394
-9.44363
-9.44241
-9.44009
-9.43619
-9.43036
-9.42256
-9.41276
-9.40061
-9.38575
-9.36752
-9.34436
-9.31367
-9.27552
-9.23971
-9.21258
-9.31237
-9.34189
-9.38074
-9.42227
-9.45589
-9.48144
-9.50212
-9.51968
-9.53455
-9.54662
-9.55601
-9.56305
-9.56781
-9.57034
-9.57119
-9.57111
-9.57018
-9.56797
-9.56395
-9.55769
-9.54907
-9.53806
-9.52453
-9.50823
-9.48843
-9.46332
-9.42998
-9.38852
-9.3495
-9.3199
-9.40201
-9.43398
-9.47584
-9.52059
-9.5569
-9.58463
-9.60703
-9.62599
-9.64205
-9.65519
-9.66546
-9.67303
-9.67795
-9.68052
-9.68162
-9.68196
-9.68133
-9.67909
-9.67476
-9.66794
-9.65843
-9.64625
-9.63136
-9.61356
-9.59205
-9.56488
-9.52885
-9.48422
-9.44223
-9.41026
-9.47226
-9.50672
-9.55175
-9.5996
-9.63849
-9.66825
-9.69223
-9.71241
-9.72943
-9.74348
-9.75457
-9.76273
-9.76805
-9.77097
-9.77249
-9.77318
-9.77265
-9.7702
-9.76542
-9.75798
-9.74761
-9.73429
-9.718
-9.69857
-9.67529
-9.6461
-9.60762
-9.56018
-9.51542
-9.48105
-9.51978
-9.55678
-9.60478
-9.65563
-9.69709
-9.72883
-9.75424
-9.77532
-9.79305
-9.80796
-9.82006
-9.82913
-9.83507
-9.83838
-9.84014
-9.84094
-9.84036
-9.83765
-9.83235
-9.82414
-9.81279
-9.79827
-9.78059
-9.75972
-9.73492
-9.70396
-9.6633
-9.61324
-9.56572
-9.52895
-9.54043
-9.57985
-9.63059
-9.6844
-9.72834
-9.76188
-9.78846
-9.81026
-9.82876
-9.84467
-9.85783
-9.86769
-9.87403
-9.87756
-9.87949
-9.8804
-9.87978
-9.87675
-9.87076
-9.86159
-9.84917
-9.83358
-9.81492
-9.79305
-9.76701
-9.73446
-9.69182
-9.63933
-9.58929
-9.55023
-9.53618
-9.57732
-9.63008
-9.68626
-9.73222
-9.76723
-9.79482
-9.81748
-9.83677
-9.85339
-9.86719
-9.87754
-9.88426
-9.88809
-9.89017
-9.89101
-9.89012
-9.88657
-9.87984
-9.86984
-9.8567
-9.84053
-9.82131
-9.79865
-9.77151
-9.73766
-9.69349
-9.63918
-9.58763
-9.54691
-9.52165
-9.56153
-9.61416
-9.67149
-9.71875
-9.75488
-9.78347
-9.80687
-9.82655
-9.84346
-9.85765
-9.8684
-9.87541
-9.87935
-9.88135
-9.88193
-9.88064
-9.87668
-9.86959
-9.85929
-9.84589
-9.82939
-9.80965
-9.78625
-9.75831
-9.72377
-9.67881
-9.62378
-9.57271
-9.53326
-9.49456
-9.53326
-9.58421
-9.64238
-9.69071
-9.72772
-9.7569
-9.78053
-9.80033
-9.81748
-9.83192
-9.84287
-9.85005
-9.85409
-9.85598
-9.85625
-9.85468
-9.85056
-9.84337
-9.83298
-9.81945
-9.80276
-9.78271
-9.75892
-9.73063
-9.69573
-9.65012
-9.59441
-9.54476
-9.50627
-6.87941
-6.86879
-6.85071
-6.8311
-6.81501
-6.80117
-6.78907
-6.77835
-6.7688
-6.76059
-6.75393
-6.74886
-6.74507
-6.74242
-6.74105
-6.74117
-6.7428
-6.74575
-6.7499
-6.75519
-6.76163
-6.76926
-6.7781
-6.78825
-6.79991
-6.81325
-6.82862
-6.84723
-6.86436
-6.87472
-6.89484
-6.88303
-6.86346
-6.8428
-6.82666
-6.81303
-6.80115
-6.79058
-6.78119
-6.77317
-6.76673
-6.76174
-6.75794
-6.75524
-6.75387
-6.754
-6.7556
-6.75849
-6.76254
-6.76772
-6.77408
-6.78162
-6.79036
-6.80042
-6.812
-6.82528
-6.84074
-6.86035
-6.87893
-6.89022
-6.87539
-6.86196
-6.84042
-6.81882
-6.80255
-6.78909
-6.77749
-6.76728
-6.75831
-6.75066
-6.74445
-6.73953
-6.73573
-6.73306
-6.73171
-6.73178
-6.73322
-6.73591
-6.73977
-6.74482
-6.75108
-6.75852
-6.76712
-6.77702
-6.78842
-6.80155
-6.81713
-6.83776
-6.85847
-6.87135
-6.88724
-6.87231
-6.85028
-6.82888
-6.81265
-6.79947
-6.78826
-6.77853
-6.77007
-6.76285
-6.75687
-6.75206
-6.74834
-6.74575
-6.74441
-6.74436
-6.74558
-6.74806
-6.75176
-6.75671
-6.76287
-6.77013
-6.77848
-6.78807
-6.79912
-6.81187
-6.82724
-6.84773
-6.86908
-6.88368
-6.9265
-6.91132
-6.89054
-6.87057
-6.85517
-6.84263
-6.83202
-6.82297
-6.81514
-6.8085
-6.80293
-6.79842
-6.79494
-6.79252
-6.79119
-6.79098
-6.79197
-6.79421
-6.79772
-6.80248
-6.80838
-6.81526
-6.82315
-6.83219
-6.8426
-6.85453
-6.86895
-6.88796
-6.90822
-6.92331
-6.98265
-6.96866
-6.95018
-6.93269
-6.91885
-6.90746
-6.89779
-6.88955
-6.88258
-6.8767
-6.87178
-6.86777
-6.86469
-6.86251
-6.86117
-6.86075
-6.86143
-6.86334
-6.86653
-6.87093
-6.87637
-6.88272
-6.89
-6.89836
-6.90786
-6.9186
-6.93151
-6.94819
-6.96629
-6.98026
-7.05981
-7.04785
-7.0326
-7.01843
-7.0069
-6.99711
-6.98864
-6.98143
-6.97547
-6.9705
-6.96636
-6.96299
-6.96041
-6.95851
-6.95718
-6.95652
-6.95682
-6.9583
-6.96103
-6.96492
-6.96975
-6.97543
-6.98201
-6.98951
-6.99787
-7.00717
-7.01816
-7.03191
-7.04694
-7.05874
-7.1579
-7.14872
-7.13742
-7.12713
-7.11832
-7.11041
-7.10328
-7.09724
-7.09229
-7.08825
-7.08489
-7.08221
-7.08022
-7.0787
-7.07748
-7.07668
-7.07668
-7.07778
-7.08003
-7.08327
-7.08735
-7.09222
-7.09787
-7.10427
-7.11128
-7.11893
-7.12764
-7.1379
-7.1491
-7.15805
-7.27518
-7.26925
-7.26216
-7.25593
-7.25002
-7.24411
-7.23846
-7.23362
-7.22967
-7.22646
-7.22382
-7.22187
-7.22055
-7.21956
-7.21864
-7.21794
-7.21787
-7.21873
-7.22049
-7.22299
-7.22613
-7.22992
-7.23436
-7.2394
-7.24484
-7.25061
-7.25664
-7.26298
-7.27003
-7.27586
-7.40878
-7.40622
-7.40341
-7.40121
-7.39827
-7.39452
-7.3906
-7.38707
-7.38415
-7.38172
-7.37979
-7.37857
-7.37797
-7.37759
-7.37713
-7.37674
-7.3768
-7.37747
-7.37868
-7.38029
-7.3823
-7.38482
-7.38787
-7.39136
-7.39506
-7.39871
-7.40173
-7.40404
-7.4069
-7.40941
-7.55528
-7.55613
-7.55756
-7.55942
-7.55959
-7.55828
-7.55632
-7.55433
-7.55256
-7.55099
-7.54984
-7.54935
-7.54944
-7.54964
-7.54966
-7.54962
-7.54976
-7.55015
-7.55068
-7.55127
-7.55209
-7.55332
-7.55496
-7.55685
-7.55868
-7.55995
-7.55982
-7.55811
-7.55674
-7.55567
-7.71144
-7.71583
-7.72146
-7.72727
-7.73064
-7.73195
-7.73215
-7.73193
-7.73151
-7.73104
-7.73081
-7.7311
-7.7318
-7.73245
-7.7328
-7.73293
-7.73299
-7.73295
-7.73269
-7.73229
-7.73204
-7.73213
-7.73246
-7.73273
-7.73255
-7.7313
-7.72795
-7.72219
-7.71646
-7.71172
-7.87481
-7.88274
-7.89238
-7.90203
-7.90849
-7.91239
-7.91485
-7.91655
-7.91773
-7.91862
-7.91946
-7.92053
-7.92172
-7.92266
-7.92319
-7.92336
-7.92321
-7.92267
-7.92166
-7.92042
-7.9193
-7.9184
-7.91747
-7.91609
-7.91385
-7.91003
-7.90339
-7.89349
-7.88343
-7.87512
-8.0432
-8.05456
-8.06804
-8.08129
-8.09074
-8.09714
-8.10183
-8.10548
-8.10841
-8.11073
-8.11264
-8.11442
-8.11601
-8.11719
-8.11785
-8.118
-8.11761
-8.1166
-8.11499
-8.1131
-8.11127
-8.10942
-8.1072
-8.10419
-8.09994
-8.0936
-8.08365
-8.06968
-8.05547
-8.04362
-8.21419
-8.22889
-8.24623
-8.26309
-8.27551
-8.28433
-8.29109
-8.29659
-8.3011
-8.30467
-8.3075
-8.30988
-8.31187
-8.31331
-8.31409
-8.31417
-8.31353
-8.31214
-8.31009
-8.3077
-8.30521
-8.30239
-8.29888
-8.29433
-8.28818
-8.27939
-8.26634
-8.24856
-8.23026
-8.21484
-8.38518
-8.40335
-8.42465
-8.44538
-8.46083
-8.47193
-8.48049
-8.48753
-8.4933
-8.49787
-8.50144
-8.50437
-8.50677
-8.50848
-8.50933
-8.50929
-8.50843
-8.50681
-8.50448
-8.50172
-8.49861
-8.49482
-8.49007
-8.48401
-8.47601
-8.46499
-8.44913
-8.42771
-8.40538
-8.3864
-8.55374
-8.57552
-8.6011
-8.6258
-8.6442
-8.65733
-8.66739
-8.67567
-8.68249
-8.68795
-8.69224
-8.69577
-8.69864
-8.70061
-8.70148
-8.70132
-8.70036
-8.69865
-8.69618
-8.69306
-8.68931
-8.68459
-8.67863
-8.67108
-8.66129
-8.64818
-8.62972
-8.60483
-8.57857
-8.55613
-8.71795
-8.74345
-8.77338
-8.80187
-8.82293
-8.8378
-8.84922
-8.85871
-8.8667
-8.87315
-8.87827
-8.88248
-8.88582
-8.888
-8.88885
-8.88862
-8.88761
-8.88584
-8.88317
-8.87962
-8.8752
-8.86958
-8.86247
-8.85348
-8.84198
-8.82696
-8.80612
-8.77791
-8.7479
-8.72216
-8.87632
-8.90555
-8.93943
-8.97132
-8.99474
-9.01131
-9.02423
-9.0352
-9.04451
-9.05201
-9.05794
-9.06272
-9.06638
-9.06864
-9.06946
-9.06917
-9.06811
-9.06625
-9.06332
-9.05929
-9.05418
-9.04772
-9.03949
-9.02912
-9.01612
-8.99944
-8.97629
-8.94489
-8.91138
-8.88249
-9.02715