/*--------------------------------*- C++ -*----------------------------------*\
| =========                 |                                                 |
| \\      /  F ield         | OpenFOAM: The Open Source CFD Toolbox           |
|  \\    /   O peration     | Version:  2506                                  |
|   \\  /    A nd           | Website:  www.openfoam.com                      |
|    \\/     M anipulation  |                                                 |
\*---------------------------------------------------------------------------*/
FoamFile
{
    version     2.0;
    format      ascii;
    arch        "LSB;label=32;scalar=64";
    class       volScalarField;
    location    "80";
    object      epsilon;
}
// * * * * * * * * * * * * * * * * * * * * * * * * * * * * * * * * * * * * * //

dimensions      [0 2 -3 0 0 0 0];

internalField   nonuniform List<scalar> 
144676
(
0.116221
0.116222
0.116222
0.116222
0.116222
0.116222
0.116222
0.116222
0.116222
0.116222
0.116222
0.116222
0.116222
0.116221
0.116221
0.116221
0.116221
0.116222
0.116222
0.116222
0.116222
0.116222
0.116222
0.116222
0.116222
0.116222
0.116222
0.116222
0.116222
0.116221
0.0471258
0.0471258
0.0471259
0.047126
0.0471261
0.0471262
0.0471263
0.0471264
0.0471265
0.0471266
0.0471267
0.0471268
0.0471269
0.0471269
0.047127
0.047127
0.0471269
0.0471269
0.0471268
0.0471267
0.0471266
0.0471265
0.0471264
0.0471263
0.0471262
0.0471261
0.047126
0.0471259
0.0471258
0.0471258
0.0283362
0.0283362
0.0283363
0.0283363
0.0283364
0.0283364
0.0283365
0.0283366
0.0283367
0.0283368
0.0283368
0.0283369
0.028337
0.028337
0.028337
0.028337
0.028337
0.028337
0.0283369
0.0283368
0.0283368
0.0283367
0.0283366
0.0283365
0.0283364
0.0283364
0.0283363
0.0283363
0.0283362
0.0283362
0.0202975
0.0202975
0.0202975
0.0202976
0.0202976
0.0202977
0.0202977
0.0202978
0.0202979
0.0202979
0.020298
0.020298
0.0202981
0.0202981
0.0202981
0.0202981
0.0202981
0.0202981
0.020298
0.020298
0.0202979
0.0202979
0.0202978
0.0202977
0.0202977
0.0202976
0.0202976
0.0202975
0.0202975
0.0202975
0.0158295
0.0158295
0.0158295
0.0158295
0.0158296
0.0158296
0.0158297
0.0158297
0.0158298
0.0158298
0.0158299
0.0158299
0.01583
0.01583
0.01583
0.01583
0.01583
0.01583
0.0158299
0.0158299
0.0158298
0.0158298
0.0158297
0.0158297
0.0158296
0.0158296
0.0158295
0.0158295
0.0158295
0.0158295
0.0129786
0.0129786
0.0129786
0.0129787
0.0129787
0.0129787
0.0129788
0.0129788
0.0129789
0.0129789
0.012979
0.012979
0.0129791
0.0129791
0.0129791
0.0129791
0.0129791
0.0129791
0.012979
0.012979
0.0129789
0.0129789
0.0129788
0.0129788
0.0129787
0.0129787
0.0129787
0.0129786
0.0129786
0.0129786
0.0109992
0.0109992
0.0109993
0.0109993
0.0109993
0.0109993
0.0109994
0.0109994
0.0109995
0.0109995
0.0109996
0.0109996
0.0109996
0.0109996
0.0109996
0.0109996
0.0109996
0.0109996
0.0109996
0.0109996
0.0109995
0.0109995
0.0109994
0.0109994
0.0109993
0.0109993
0.0109993
0.0109993
0.0109992
0.0109992
0.0095441
0.0095441
0.00954412
0.00954414
0.00954417
0.0095442
0.00954423
0.00954427
0.00954431
0.00954434
0.00954438
0.00954441
0.00954443
0.00954445
0.00954445
0.00954445
0.00954445
0.00954443
0.00954441
0.00954438
0.00954434
0.00954431
0.00954427
0.00954423
0.0095442
0.00954416
0.00954414
0.00954412
0.0095441
0.0095441
0.0084291
0.00842911
0.00842912
0.00842914
0.00842916
0.00842919
0.00842922
0.00842926
0.00842929
0.00842932
0.00842935
0.00842937
0.00842939
0.00842941
0.00842941
0.00842941
0.00842941
0.00842939
0.00842937
0.00842935
0.00842932
0.00842929
0.00842925
0.00842922
0.00842919
0.00842916
0.00842914
0.00842912
0.00842911
0.0084291
0.0075474
0.00754741
0.00754742
0.00754743
0.00754745
0.00754748
0.0075475
0.00754753
0.00754756
0.00754759
0.00754761
0.00754763
0.00754765
0.00754766
0.00754767
0.00754767
0.00754766
0.00754765
0.00754763
0.00754761
0.00754759
0.00754756
0.00754753
0.0075475
0.00754748
0.00754745
0.00754743
0.00754742
0.00754741
0.0075474
0.00683268
0.00683268
0.00683269
0.0068327
0.00683272
0.00683274
0.00683277
0.00683279
0.00683281
0.00683284
0.00683286
0.00683288
0.00683289
0.0068329
0.00683291
0.00683291
0.0068329
0.00683289
0.00683288
0.00683286
0.00683284
0.00683281
0.00683279
0.00683277
0.00683274
0.00683272
0.0068327
0.00683269
0.00683268
0.00683268
0.00624159
0.00624159
0.0062416
0.00624161
0.00624163
0.00624165
0.00624167
0.00624169
0.00624171
0.00624173
0.00624175
0.00624176
0.00624177
0.00624178
0.00624179
0.00624179
0.00624178
0.00624177
0.00624176
0.00624175
0.00624173
0.00624171
0.00624169
0.00624166
0.00624165
0.00624163
0.00624161
0.0062416
0.00624159
0.00624159
0.0057446
0.00574461
0.00574461
0.00574462
0.00574464
0.00574465
0.00574467
0.00574469
0.0057447
0.00574472
0.00574474
0.00574475
0.00574476
0.00574477
0.00574477
0.00574477
0.00574477
0.00574476
0.00574475
0.00574474
0.00574472
0.0057447
0.00574469
0.00574467
0.00574465
0.00574464
0.00574462
0.00574461
0.00574461
0.0057446
0.0053209
0.00532091
0.00532091
0.00532092
0.00532093
0.00532094
0.00532096
0.00532097
0.00532099
0.005321
0.00532102
0.00532103
0.00532104
0.00532104
0.00532105
0.00532105
0.00532104
0.00532104
0.00532103
0.00532102
0.005321
0.00532099
0.00532097
0.00532096
0.00532094
0.00532093
0.00532092
0.00532091
0.00532091
0.0053209
0.00495539
0.00495539
0.00495539
0.0049554
0.00495541
0.00495542
0.00495543
0.00495545
0.00495546
0.00495547
0.00495548
0.00495549
0.0049555
0.0049555
0.00495551
0.00495551
0.0049555
0.0049555
0.00495549
0.00495548
0.00495547
0.00495546
0.00495545
0.00495543
0.00495542
0.00495541
0.0049554
0.00495539
0.00495539
0.00495539
0.00463684
0.00463684
0.00463685
0.00463685
0.00463686
0.00463687
0.00463688
0.00463689
0.0046369
0.00463691
0.00463692
0.00463693
0.00463693
0.00463694
0.00463694
0.00463694
0.00463694
0.00463693
0.00463693
0.00463692
0.00463691
0.0046369
0.00463689
0.00463688
0.00463687
0.00463686
0.00463685
0.00463685
0.00463684
0.00463684
0.00435675
0.00435676
0.00435676
0.00435676
0.00435677
0.00435678
0.00435679
0.00435679
0.0043568
0.00435681
0.00435682
0.00435683
0.00435683
0.00435684
0.00435684
0.00435684
0.00435684
0.00435683
0.00435683
0.00435682
0.00435681
0.0043568
0.00435679
0.00435679
0.00435678
0.00435677
0.00435676
0.00435676
0.00435676
0.00435675
0.00410856
0.00410856
0.00410856
0.00410856
0.00410857
0.00410858
0.00410858
0.00410859
0.0041086
0.0041086
0.00410861
0.00410862
0.00410862
0.00410862
0.00410863
0.00410863
0.00410862
0.00410862
0.00410862
0.00410861
0.0041086
0.0041086
0.00410859
0.00410858
0.00410858
0.00410857
0.00410856
0.00410856
0.00410856
0.00410856
0.0038871
0.0038871
0.0038871
0.0038871
0.00388711
0.00388711
0.00388712
0.00388712
0.00388713
0.00388713
0.00388714
0.00388714
0.00388715
0.00388715
0.00388715
0.00388715
0.00388715
0.00388715
0.00388714
0.00388714
0.00388713
0.00388713
0.00388712
0.00388712
0.00388711
0.00388711
0.0038871
0.0038871
0.0038871
0.0038871
0.00368827
0.00368827
0.00368827
0.00368827
0.00368828
0.00368828
0.00368828
0.00368829
0.00368829
0.0036883
0.0036883
0.00368831
0.00368831
0.00368831
0.00368831
0.00368831
0.00368831
0.00368831
0.00368831
0.0036883
0.0036883
0.00368829
0.00368829
0.00368828
0.00368828
0.00368828
0.00368827
0.00368827
0.00368827
0.00368827
0.00350877
0.00350877
0.00350877
0.00350877
0.00350878
0.00350878
0.00350878
0.00350879
0.00350879
0.0035088
0.0035088
0.0035088
0.00350881
0.00350881
0.00350881
0.00350881
0.00350881
0.00350881
0.0035088
0.0035088
0.0035088
0.00350879
0.00350879
0.00350878
0.00350878
0.00350878
0.00350877
0.00350877
0.00350877
0.00350877
0.00334591
0.00334591
0.00334591
0.00334592
0.00334592
0.00334592
0.00334592
0.00334593
0.00334593
0.00334593
0.00334594
0.00334594
0.00334594
0.00334594
0.00334594
0.00334594
0.00334594
0.00334594
0.00334594
0.00334594
0.00334593
0.00334593
0.00334593
0.00334592
0.00334592
0.00334592
0.00334592
0.00334591
0.00334591
0.00334591
0.00319749
0.00319749
0.00319749
0.00319749
0.00319749
0.00319749
0.00319749
0.0031975
0.0031975
0.0031975
0.0031975
0.00319751
0.00319751
0.00319751
0.00319751
0.00319751
0.00319751
0.00319751
0.00319751
0.0031975
0.0031975
0.0031975
0.0031975
0.00319749
0.00319749
0.00319749
0.00319749
0.00319749
0.00319749
0.00319749
0.00306165
0.00306165
0.00306165
0.00306166
0.00306166
0.00306166
0.00306166
0.00306166
0.00306166
0.00306167
0.00306167
0.00306167
0.00306167
0.00306167
0.00306167
0.00306167
0.00306167
0.00306167
0.00306167
0.00306167
0.00306167
0.00306166
0.00306166
0.00306166
0.00306166
0.00306166
0.00306165
0.00306165
0.00306165
0.00306165
0.0029369
0.0029369
0.0029369
0.0029369
0.0029369
0.00293691
0.00293691
0.00293691
0.00293691
0.00293691
0.00293691
0.00293691
0.00293691
0.00293692
0.00293692
0.00293692
0.00293692
0.00293691
0.00293691
0.00293691
0.00293691
0.00293691
0.00293691
0.00293691
0.0029369
0.0029369
0.0029369
0.0029369
0.0029369
0.0029369
0.00282199
0.00282199
0.00282199
0.00282199
0.00282199
0.00282199
0.002822
0.002822
0.002822
0.002822
0.002822
0.002822
0.002822
0.002822
0.002822
0.002822
0.002822
0.002822
0.002822
0.002822
0.002822
0.002822
0.002822
0.002822
0.00282199
0.00282199
0.00282199
0.00282199
0.00282199
0.00282199
0.002716
0.002716
0.002716
0.002716
0.002716
0.002716
0.00271601
0.00271601
0.00271601
0.00271601
0.00271601
0.00271601
0.00271601
0.00271601
0.00271601
0.00271601
0.00271601
0.00271601
0.00271601
0.00271601
0.00271601
0.00271601
0.00271601
0.00271601
0.002716
0.002716
0.002716
0.002716
0.002716
0.002716
0.00261858
0.00261858
0.00261858
0.00261858
0.00261858
0.00261858
0.00261858
0.00261858
0.00261858
0.00261858
0.00261858
0.00261858
0.00261858
0.00261858
0.00261858
0.00261858
0.00261858
0.00261858
0.00261858
0.00261858
0.00261858
0.00261858
0.00261858
0.00261858
0.00261858
0.00261858
0.00261858
0.00261858
0.00261858
0.00261858
0.00253109
0.00253109
0.00253109
0.00253109
0.00253109
0.00253109
0.00253109
0.00253109
0.00253109
0.00253109
0.00253109
0.00253109
0.00253109
0.00253109
0.00253109
0.00253109
0.00253109
0.00253109
0.00253109
0.00253109
0.00253109
0.00253109
0.00253109
0.00253109
0.00253109
0.00253109
0.00253109
0.00253109
0.00253109
0.00253109
0.00246257
0.00246257
0.00246257
0.00246257
0.00246257
0.00246257
0.00246257
0.00246257
0.00246257
0.00246257
0.00246257
0.00246257
0.00246257
0.00246257
0.00246257
0.00246257
0.00246257
0.00246257
0.00246257
0.00246257
0.00246257
0.00246257
0.00246257
0.00246257
0.00246257
0.00246257
0.00246257
0.00246257
0.00246257
0.00246257
0.0963948
0.0963965
0.0963966
0.0963965
0.0963962
0.0963959
0.0963955
0.096395
0.0963946
0.0963941
0.0963937
0.0963934
0.0963931
0.0963929
0.0963928
0.0963928
0.0963929
0.0963931
0.0963934
0.0963937
0.0963941
0.0963946
0.096395
0.0963954
0.0963959
0.0963962
0.0963965
0.0963966
0.0963965
0.0963948
0.0468478
0.0468476
0.0468477
0.0468479
0.0468482
0.0468484
0.0468487
0.046849
0.0468493
0.0468496
0.0468498
0.04685
0.0468502
0.0468503
0.0468504
0.0468504
0.0468503
0.0468502
0.04685
0.0468498
0.0468495
0.0468493
0.046849
0.0468487
0.0468484
0.0468481
0.0468479
0.0468477
0.0468476
0.0468478
0.0283955
0.0283953
0.0283953
0.0283955
0.0283956
0.0283958
0.028396
0.0283962
0.0283964
0.0283966
0.0283968
0.0283969
0.0283971
0.0283972
0.0283972
0.0283972
0.0283972
0.0283971
0.0283969
0.0283968
0.0283966
0.0283964
0.0283962
0.028396
0.0283958
0.0283956
0.0283955
0.0283953
0.0283953
0.0283955
0.0202992
0.0202992
0.0202992
0.0202993
0.0202994
0.0202995
0.0202997
0.0202998
0.0203
0.0203002
0.0203003
0.0203004
0.0203005
0.0203006
0.0203006
0.0203006
0.0203006
0.0203005
0.0203004
0.0203003
0.0203001
0.0203
0.0202998
0.0202997
0.0202995
0.0202994
0.0202993
0.0202992
0.0202992
0.0202992
0.0158165
0.0158165
0.0158166
0.0158166
0.0158167
0.0158168
0.015817
0.0158171
0.0158172
0.0158174
0.0158175
0.0158176
0.0158177
0.0158177
0.0158178
0.0158178
0.0158177
0.0158177
0.0158176
0.0158175
0.0158174
0.0158172
0.0158171
0.015817
0.0158168
0.0158167
0.0158166
0.0158166
0.0158165
0.0158165
0.0129655
0.0129655
0.0129655
0.0129656
0.0129657
0.0129658
0.0129659
0.012966
0.0129661
0.0129662
0.0129663
0.0129664
0.0129665
0.0129665
0.0129666
0.0129666
0.0129665
0.0129665
0.0129664
0.0129663
0.0129662
0.0129661
0.012966
0.0129659
0.0129658
0.0129657
0.0129656
0.0129655
0.0129655
0.0129655
0.0109885
0.0109885
0.0109885
0.0109885
0.0109886
0.0109887
0.0109888
0.0109889
0.010989
0.0109891
0.0109892
0.0109893
0.0109893
0.0109894
0.0109894
0.0109894
0.0109894
0.0109893
0.0109893
0.0109892
0.0109891
0.010989
0.0109889
0.0109888
0.0109887
0.0109886
0.0109885
0.0109885
0.0109885
0.0109884
0.00953562
0.00953564
0.00953566
0.00953571
0.00953577
0.00953585
0.00953593
0.00953601
0.0095361
0.00953618
0.00953626
0.00953632
0.00953638
0.00953641
0.00953643
0.00953643
0.00953641
0.00953638
0.00953632
0.00953626
0.00953618
0.0095361
0.00953601
0.00953593
0.00953585
0.00953577
0.00953571
0.00953566
0.00953563
0.00953562
0.00842247
0.00842248
0.0084225
0.00842254
0.0084226
0.00842266
0.00842273
0.00842281
0.00842288
0.00842295
0.00842302
0.00842308
0.00842312
0.00842315
0.00842317
0.00842317
0.00842315
0.00842312
0.00842308
0.00842302
0.00842295
0.00842288
0.0084228
0.00842273
0.00842266
0.0084226
0.00842254
0.0084225
0.00842248
0.00842247
0.00754215
0.00754216
0.00754218
0.00754222
0.00754226
0.00754232
0.00754238
0.00754244
0.00754251
0.00754257
0.00754263
0.00754268
0.00754272
0.00754274
0.00754276
0.00754276
0.00754274
0.00754272
0.00754268
0.00754263
0.00754257
0.00754251
0.00754244
0.00754238
0.00754232
0.00754226
0.00754222
0.00754218
0.00754216
0.00754215
0.00682846
0.00682847
0.00682849
0.00682852
0.00682856
0.00682861
0.00682866
0.00682872
0.00682877
0.00682882
0.00682887
0.00682892
0.00682895
0.00682897
0.00682898
0.00682898
0.00682897
0.00682895
0.00682892
0.00682887
0.00682882
0.00682877
0.00682871
0.00682866
0.00682861
0.00682856
0.00682852
0.00682849
0.00682847
0.00682846
0.00623815
0.00623815
0.00623817
0.0062382
0.00623823
0.00623827
0.00623832
0.00623836
0.00623841
0.00623846
0.0062385
0.00623854
0.00623856
0.00623858
0.0062386
0.0062386
0.00623858
0.00623856
0.00623854
0.0062385
0.00623846
0.00623841
0.00623836
0.00623832
0.00623827
0.00623823
0.0062382
0.00623817
0.00623815
0.00623815
0.00574174
0.00574175
0.00574176
0.00574178
0.00574181
0.00574185
0.00574189
0.00574193
0.00574197
0.00574201
0.00574204
0.00574207
0.0057421
0.00574211
0.00574212
0.00574212
0.00574211
0.0057421
0.00574207
0.00574204
0.00574201
0.00574197
0.00574193
0.00574189
0.00574185
0.00574181
0.00574178
0.00574176
0.00574175
0.00574174
0.00531848
0.00531848
0.0053185
0.00531851
0.00531854
0.00531857
0.0053186
0.00531863
0.00531867
0.0053187
0.00531873
0.00531876
0.00531878
0.00531879
0.0053188
0.0053188
0.00531879
0.00531878
0.00531876
0.00531873
0.0053187
0.00531867
0.00531863
0.0053186
0.00531857
0.00531854
0.00531851
0.00531849
0.00531848
0.00531848
0.00495329
0.0049533
0.00495331
0.00495332
0.00495334
0.00495337
0.0049534
0.00495342
0.00495345
0.00495348
0.00495351
0.00495353
0.00495355
0.00495356
0.00495356
0.00495356
0.00495356
0.00495355
0.00495353
0.00495351
0.00495348
0.00495345
0.00495342
0.0049534
0.00495337
0.00495334
0.00495332
0.00495331
0.0049533
0.00495329
0.004635
0.004635
0.00463501
0.00463502
0.00463504
0.00463506
0.00463508
0.00463511
0.00463513
0.00463515
0.00463517
0.00463519
0.00463521
0.00463522
0.00463522
0.00463522
0.00463522
0.00463521
0.00463519
0.00463517
0.00463515
0.00463513
0.0046351
0.00463508
0.00463506
0.00463504
0.00463502
0.00463501
0.004635
0.004635
0.0043551
0.0043551
0.00435511
0.00435512
0.00435513
0.00435515
0.00435517
0.00435519
0.00435521
0.00435523
0.00435525
0.00435526
0.00435527
0.00435528
0.00435529
0.00435529
0.00435528
0.00435527
0.00435526
0.00435524
0.00435523
0.00435521
0.00435519
0.00435517
0.00435515
0.00435513
0.00435512
0.00435511
0.0043551
0.0043551
0.00410704
0.00410704
0.00410705
0.00410706
0.00410707
0.00410708
0.0041071
0.00410711
0.00410713
0.00410715
0.00410716
0.00410717
0.00410718
0.00410719
0.0041072
0.0041072
0.00410719
0.00410718
0.00410717
0.00410716
0.00410715
0.00410713
0.00410711
0.0041071
0.00410708
0.00410707
0.00410706
0.00410705
0.00410704
0.00410704
0.00388568
0.00388568
0.00388569
0.00388569
0.0038857
0.00388571
0.00388573
0.00388574
0.00388575
0.00388577
0.00388578
0.00388579
0.0038858
0.0038858
0.00388581
0.00388581
0.0038858
0.0038858
0.00388579
0.00388578
0.00388577
0.00388575
0.00388574
0.00388573
0.00388571
0.0038857
0.00388569
0.00388569
0.00388568
0.00388568
0.00368693
0.00368693
0.00368693
0.00368693
0.00368694
0.00368695
0.00368696
0.00368697
0.00368698
0.003687
0.00368701
0.00368701
0.00368702
0.00368703
0.00368703
0.00368703
0.00368703
0.00368702
0.00368701
0.00368701
0.003687
0.00368698
0.00368697
0.00368696
0.00368695
0.00368694
0.00368693
0.00368693
0.00368693
0.00368692
0.00350748
0.00350748
0.00350748
0.00350748
0.00350749
0.0035075
0.00350751
0.00350752
0.00350753
0.00350754
0.00350754
0.00350755
0.00350756
0.00350756
0.00350756
0.00350756
0.00350756
0.00350756
0.00350755
0.00350754
0.00350753
0.00350753
0.00350752
0.00350751
0.0035075
0.00350749
0.00350748
0.00350748
0.00350748
0.00350748
0.00334466
0.00334466
0.00334466
0.00334466
0.00334467
0.00334467
0.00334468
0.00334469
0.0033447
0.0033447
0.00334471
0.00334472
0.00334472
0.00334472
0.00334472
0.00334472
0.00334472
0.00334472
0.00334472
0.00334471
0.0033447
0.0033447
0.00334469
0.00334468
0.00334467
0.00334467
0.00334466
0.00334466
0.00334466
0.00334466
0.00319626
0.00319626
0.00319626
0.00319627
0.00319627
0.00319628
0.00319628
0.00319629
0.00319629
0.0031963
0.00319631
0.00319631
0.00319631
0.00319632
0.00319632
0.00319632
0.00319632
0.00319631
0.00319631
0.00319631
0.0031963
0.00319629
0.00319629
0.00319628
0.00319628
0.00319627
0.00319627
0.00319626
0.00319626
0.00319626
0.00306049
0.00306049
0.00306049
0.0030605
0.0030605
0.0030605
0.00306051
0.00306051
0.00306052
0.00306052
0.00306053
0.00306053
0.00306053
0.00306053
0.00306053
0.00306053
0.00306053
0.00306053
0.00306053
0.00306053
0.00306052
0.00306052
0.00306051
0.00306051
0.0030605
0.0030605
0.00306049
0.00306049
0.00306049
0.00306049
0.00293589
0.00293588
0.00293589
0.00293589
0.00293589
0.00293589
0.0029359
0.0029359
0.0029359
0.00293591
0.00293591
0.00293591
0.00293592
0.00293592
0.00293592
0.00293592
0.00293592
0.00293592
0.00293591
0.00293591
0.00293591
0.0029359
0.0029359
0.0029359
0.00293589
0.00293589
0.00293589
0.00293588
0.00293588
0.00293589
0.00282135
0.00282135
0.00282135
0.00282135
0.00282135
0.00282135
0.00282136
0.00282136
0.00282136
0.00282137
0.00282137
0.00282137
0.00282137
0.00282137
0.00282137
0.00282137
0.00282137
0.00282137
0.00282137
0.00282137
0.00282137
0.00282136
0.00282136
0.00282136
0.00282135
0.00282135
0.00282135
0.00282135
0.00282135
0.00282135
0.00271634
0.00271634
0.00271634
0.00271634
0.00271634
0.00271635
0.00271635
0.00271635
0.00271635
0.00271635
0.00271636
0.00271636
0.00271636
0.00271636
0.00271636
0.00271636
0.00271636
0.00271636
0.00271636
0.00271636
0.00271635
0.00271635
0.00271635
0.00271635
0.00271635
0.00271634
0.00271634
0.00271634
0.00271634
0.00271634
0.00262148
0.00262148
0.00262148
0.00262148
0.00262148
0.00262149
0.00262149
0.00262149
0.00262149
0.00262149
0.00262149
0.00262149
0.00262149
0.00262149
0.00262149
0.00262149
0.00262149
0.00262149
0.00262149
0.00262149
0.00262149
0.00262149
0.00262149
0.00262149
0.00262149
0.00262148
0.00262148
0.00262148
0.00262148
0.00262148
0.00254046
0.00254046
0.00254045
0.00254045
0.00254046
0.00254046
0.00254046
0.00254046
0.00254046
0.00254046
0.00254046
0.00254046
0.00254046
0.00254046
0.00254046
0.00254046
0.00254046
0.00254046
0.00254046
0.00254046
0.00254046
0.00254046
0.00254046
0.00254046
0.00254046
0.00254045
0.00254045
0.00254045
0.00254046
0.00254046
0.00248536
0.00248536
0.00248536
0.00248536
0.00248536
0.00248536
0.00248536
0.00248536
0.00248536
0.00248536
0.00248536
0.00248536
0.00248536
0.00248536
0.00248536
0.00248536
0.00248536
0.00248536
0.00248536
0.00248536
0.00248536
0.00248536
0.00248536
0.00248536
0.00248536
0.00248536
0.00248536
0.00248536
0.00248536
0.00248536
0.082574
0.082575
0.0825751
0.0825747
0.0825741
0.0825732
0.0825723
0.0825713
0.0825702
0.0825692
0.0825683
0.0825674
0.0825668
0.0825663
0.0825661
0.0825661
0.0825663
0.0825668
0.0825674
0.0825683
0.0825692
0.0825702
0.0825713
0.0825723
0.0825732
0.0825741
0.0825747
0.0825751
0.082575
0.082574
0.0460595
0.0460588
0.0460589
0.0460592
0.0460596
0.0460601
0.0460607
0.0460613
0.0460619
0.0460624
0.046063
0.0460634
0.0460638
0.046064
0.0460642
0.0460642
0.046064
0.0460638
0.0460634
0.046063
0.0460624
0.0460619
0.0460613
0.0460607
0.0460601
0.0460596
0.0460592
0.0460589
0.0460588
0.0460595
0.028409
0.0284088
0.0284088
0.028409
0.0284093
0.0284096
0.02841
0.0284104
0.0284108
0.0284112
0.0284116
0.0284119
0.0284122
0.0284124
0.0284124
0.0284124
0.0284124
0.0284122
0.0284119
0.0284116
0.0284112
0.0284108
0.0284104
0.02841
0.0284096
0.0284093
0.028409
0.0284088
0.0284088
0.028409
0.0203078
0.0203078
0.0203079
0.020308
0.0203082
0.0203085
0.0203088
0.0203091
0.0203094
0.0203097
0.02031
0.0203102
0.0203104
0.0203105
0.0203106
0.0203106
0.0203105
0.0203104
0.0203102
0.02031
0.0203097
0.0203094
0.0203091
0.0203088
0.0203085
0.0203082
0.020308
0.0203079
0.0203078
0.0203078
0.0158099
0.0158099
0.0158099
0.0158101
0.0158102
0.0158105
0.0158107
0.0158109
0.0158112
0.0158114
0.0158116
0.0158118
0.015812
0.0158121
0.0158122
0.0158122
0.0158121
0.015812
0.0158118
0.0158116
0.0158114
0.0158112
0.0158109
0.0158107
0.0158105
0.0158102
0.0158101
0.0158099
0.0158099
0.0158099
0.0129557
0.0129558
0.0129558
0.0129559
0.0129561
0.0129563
0.0129564
0.0129567
0.0129569
0.0129571
0.0129572
0.0129574
0.0129575
0.0129576
0.0129577
0.0129577
0.0129576
0.0129575
0.0129574
0.0129572
0.0129571
0.0129569
0.0129566
0.0129564
0.0129562
0.0129561
0.0129559
0.0129558
0.0129558
0.0129557
0.0109795
0.0109795
0.0109795
0.0109796
0.0109798
0.0109799
0.0109801
0.0109802
0.0109804
0.0109806
0.0109808
0.0109809
0.010981
0.0109811
0.0109811
0.0109811
0.0109811
0.010981
0.0109809
0.0109808
0.0109806
0.0109804
0.0109802
0.0109801
0.0109799
0.0109798
0.0109796
0.0109795
0.0109795
0.0109795
0.00952816
0.00952818
0.00952823
0.00952832
0.00952842
0.00952855
0.00952869
0.00952885
0.009529
0.00952915
0.00952928
0.0095294
0.00952949
0.00952956
0.00952959
0.00952959
0.00952956
0.00952949
0.0095294
0.00952928
0.00952914
0.009529
0.00952884
0.00952869
0.00952855
0.00952842
0.00952831
0.00952823
0.00952818
0.00952816
0.00841644
0.00841646
0.00841651
0.00841658
0.00841667
0.00841678
0.0084169
0.00841703
0.00841716
0.00841729
0.00841741
0.00841751
0.00841759
0.00841764
0.00841767
0.00841767
0.00841764
0.00841759
0.00841751
0.00841741
0.00841729
0.00841716
0.00841703
0.0084169
0.00841678
0.00841667
0.00841658
0.0084165
0.00841646
0.00841644
0.00753729
0.00753731
0.00753735
0.00753741
0.00753749
0.00753759
0.00753769
0.0075378
0.00753791
0.00753802
0.00753812
0.00753821
0.00753828
0.00753833
0.00753835
0.00753835
0.00753833
0.00753828
0.00753821
0.00753812
0.00753802
0.00753791
0.0075378
0.00753769
0.00753758
0.00753749
0.00753741
0.00753735
0.00753731
0.00753729
0.00682451
0.00682453
0.00682456
0.00682461
0.00682468
0.00682476
0.00682485
0.00682495
0.00682505
0.00682514
0.00682522
0.0068253
0.00682536
0.0068254
0.00682542
0.00682542
0.0068254
0.00682535
0.0068253
0.00682522
0.00682514
0.00682504
0.00682495
0.00682485
0.00682476
0.00682468
0.00682461
0.00682456
0.00682453
0.00682451
0.00623489
0.00623491
0.00623494
0.00623498
0.00623504
0.00623511
0.00623518
0.00623527
0.00623535
0.00623543
0.0062355
0.00623556
0.00623561
0.00623565
0.00623566
0.00623566
0.00623565
0.00623561
0.00623556
0.0062355
0.00623543
0.00623535
0.00623526
0.00623518
0.00623511
0.00623504
0.00623498
0.00623493
0.00623491
0.00623489
0.00573902
0.00573903
0.00573905
0.00573909
0.00573914
0.0057392
0.00573927
0.00573933
0.0057394
0.00573947
0.00573953
0.00573959
0.00573963
0.00573966
0.00573967
0.00573967
0.00573966
0.00573963
0.00573958
0.00573953
0.00573947
0.0057394
0.00573933
0.00573926
0.0057392
0.00573914
0.00573909
0.00573905
0.00573903
0.00573902
0.00531616
0.00531617
0.00531619
0.00531622
0.00531626
0.00531631
0.00531637
0.00531643
0.00531648
0.00531654
0.00531659
0.00531664
0.00531667
0.0053167
0.00531671
0.00531671
0.0053167
0.00531667
0.00531664
0.00531659
0.00531654
0.00531648
0.00531642
0.00531637
0.00531631
0.00531626
0.00531622
0.00531619
0.00531617
0.00531616
0.00495129
0.00495129
0.00495131
0.00495134
0.00495137
0.00495141
0.00495146
0.00495151
0.00495156
0.0049516
0.00495165
0.00495168
0.00495171
0.00495173
0.00495174
0.00495174
0.00495173
0.00495171
0.00495168
0.00495165
0.0049516
0.00495155
0.00495151
0.00495146
0.00495141
0.00495137
0.00495133
0.00495131
0.00495129
0.00495129
0.00463323
0.00463323
0.00463324
0.00463327
0.00463329
0.00463333
0.00463337
0.00463341
0.00463345
0.00463349
0.00463352
0.00463356
0.00463358
0.0046336
0.00463361
0.00463361
0.0046336
0.00463358
0.00463356
0.00463352
0.00463349
0.00463345
0.00463341
0.00463337
0.00463333
0.00463329
0.00463326
0.00463324
0.00463323
0.00463323
0.00435351
0.00435351
0.00435352
0.00435354
0.00435356
0.00435359
0.00435362
0.00435366
0.00435369
0.00435372
0.00435375
0.00435378
0.0043538
0.00435381
0.00435382
0.00435382
0.00435381
0.0043538
0.00435378
0.00435375
0.00435372
0.00435369
0.00435366
0.00435362
0.00435359
0.00435356
0.00435354
0.00435352
0.00435351
0.00435351
0.00410559
0.00410559
0.0041056
0.00410561
0.00410563
0.00410565
0.00410568
0.00410571
0.00410574
0.00410576
0.00410579
0.00410581
0.00410583
0.00410584
0.00410585
0.00410585
0.00410584
0.00410583
0.00410581
0.00410579
0.00410576
0.00410574
0.00410571
0.00410568
0.00410565
0.00410563
0.00410561
0.0041056
0.00410559
0.00410559
0.00388433
0.00388433
0.00388434
0.00388435
0.00388437
0.00388439
0.00388441
0.00388443
0.00388445
0.00388448
0.0038845
0.00388451
0.00388453
0.00388454
0.00388454
0.00388454
0.00388454
0.00388453
0.00388451
0.0038845
0.00388448
0.00388445
0.00388443
0.00388441
0.00388438
0.00388437
0.00388435
0.00388434
0.00388433
0.00388433
0.00368566
0.00368566
0.00368566
0.00368567
0.00368568
0.0036857
0.00368572
0.00368574
0.00368576
0.00368577
0.00368579
0.00368581
0.00368582
0.00368583
0.00368583
0.00368583
0.00368582
0.00368582
0.00368581
0.00368579
0.00368577
0.00368576
0.00368574
0.00368572
0.0036857
0.00368568
0.00368567
0.00368566
0.00368566
0.00368566
0.00350628
0.00350628
0.00350628
0.00350629
0.0035063
0.00350631
0.00350633
0.00350634
0.00350636
0.00350637
0.00350638
0.0035064
0.00350641
0.00350641
0.00350642
0.00350642
0.00350641
0.00350641
0.0035064
0.00350638
0.00350637
0.00350636
0.00350634
0.00350632
0.00350631
0.0035063
0.00350629
0.00350628
0.00350628
0.00350628
0.00334352
0.00334352
0.00334352
0.00334353
0.00334354
0.00334355
0.00334356
0.00334357
0.00334358
0.0033436
0.00334361
0.00334362
0.00334362
0.00334363
0.00334363
0.00334363
0.00334363
0.00334362
0.00334362
0.00334361
0.0033436
0.00334358
0.00334357
0.00334356
0.00334355
0.00334354
0.00334353
0.00334352
0.00334352
0.00334352
0.00319521
0.00319521
0.00319521
0.00319521
0.00319522
0.00319523
0.00319524
0.00319525
0.00319526
0.00319527
0.00319528
0.00319528
0.00319529
0.00319529
0.0031953
0.0031953
0.00319529
0.00319529
0.00319528
0.00319528
0.00319527
0.00319526
0.00319525
0.00319524
0.00319523
0.00319522
0.00319521
0.00319521
0.00319521
0.00319521
0.00305957
0.00305957
0.00305957
0.00305957
0.00305958
0.00305959
0.00305959
0.0030596
0.00305961
0.00305962
0.00305962
0.00305963
0.00305964
0.00305964
0.00305964
0.00305964
0.00305964
0.00305964
0.00305963
0.00305962
0.00305962
0.00305961
0.0030596
0.00305959
0.00305959
0.00305958
0.00305957
0.00305957
0.00305957
0.00305957
0.00293524
0.00293523
0.00293523
0.00293524
0.00293524
0.00293525
0.00293525
0.00293526
0.00293526
0.00293527
0.00293528
0.00293528
0.00293528
0.00293529
0.00293529
0.00293529
0.00293529
0.00293528
0.00293528
0.00293528
0.00293527
0.00293526
0.00293526
0.00293525
0.00293525
0.00293524
0.00293524
0.00293523
0.00293523
0.00293523
0.0028213
0.0028213
0.0028213
0.0028213
0.0028213
0.00282131
0.00282131
0.00282132
0.00282132
0.00282133
0.00282133
0.00282133
0.00282134
0.00282134
0.00282134
0.00282134
0.00282134
0.00282134
0.00282133
0.00282133
0.00282133
0.00282132
0.00282132
0.00282131
0.00282131
0.0028213
0.0028213
0.0028213
0.0028213
0.0028213
0.00271764
0.00271764
0.00271764
0.00271764
0.00271764
0.00271765
0.00271765
0.00271765
0.00271766
0.00271766
0.00271766
0.00271767
0.00271767
0.00271767
0.00271767
0.00271767
0.00271767
0.00271767
0.00271767
0.00271766
0.00271766
0.00271766
0.00271765
0.00271765
0.00271765
0.00271764
0.00271764
0.00271764
0.00271764
0.00271764
0.00262575
0.00262575
0.00262575
0.00262575
0.00262575
0.00262575
0.00262575
0.00262575
0.00262576
0.00262576
0.00262576
0.00262576
0.00262576
0.00262576
0.00262577
0.00262577
0.00262576
0.00262576
0.00262576
0.00262576
0.00262576
0.00262576
0.00262575
0.00262575
0.00262575
0.00262575
0.00262575
0.00262575
0.00262575
0.00262575
0.00255059
0.00255059
0.00255059
0.00255059
0.00255059
0.00255059
0.00255059
0.00255059
0.00255059
0.00255059
0.00255059
0.00255059
0.00255059
0.00255059
0.00255059
0.00255059
0.00255059
0.00255059
0.00255059
0.00255059
0.00255059
0.00255059
0.00255059
0.00255059
0.00255059
0.00255059
0.00255058
0.00255059
0.00255059
0.00255059
0.00250381
0.00250381
0.00250381
0.00250381
0.00250381
0.00250381
0.00250381
0.00250381
0.00250381
0.00250381
0.00250381
0.00250381
0.00250381
0.00250381
0.00250381
0.00250381
0.00250381
0.00250381
0.00250381
0.00250381
0.00250381
0.00250381
0.00250381
0.00250381
0.00250381
0.00250381
0.00250381
0.00250381
0.00250381
0.00250381
0.0726702
0.0726702
0.0726701
0.0726693
0.0726681
0.0726666
0.0726649
0.0726631
0.0726613
0.0726595
0.0726578
0.0726564
0.0726552
0.0726544
0.072654
0.072654
0.0726544
0.0726552
0.0726564
0.0726578
0.0726595
0.0726613
0.0726631
0.0726649
0.0726666
0.0726681
0.0726693
0.0726701
0.0726702
0.0726702
0.0449669
0.0449662
0.0449664
0.0449669
0.0449676
0.0449684
0.0449694
0.0449704
0.0449714
0.0449724