/*--------------------------------*- C++ -*----------------------------------*\
| =========                 |                                                 |
| \\      /  F ield         | OpenFOAM: The Open Source CFD Toolbox           |
|  \\    /   O peration     | Version:  2506                                  |
|   \\  /    A nd           | Website:  www.openfoam.com                      |
|    \\/     M anipulation  |                                                 |
\*---------------------------------------------------------------------------*/
FoamFile
{
    version     2.0;
    format      ascii;
    arch        "LSB;label=32;scalar=64";
    class       volScalarField;
    location    "80";
    object      p;
}
// * * * * * * * * * * * * * * * * * * * * * * * * * * * * * * * * * * * * * //

dimensions      [0 2 -2 0 0 0 0];

internalField   nonuniform List<scalar> 
144676
(
-0.174229
-0.173944
-0.173511
-0.172905
-0.172147
-0.171265
-0.170294
-0.169274
-0.168249
-0.167265
-0.166364
-0.165588
-0.164971
-0.164544
-0.164325
-0.164325
-0.164543
-0.16497
-0.165586
-0.166362
-0.167262
-0.168246
-0.169271
-0.17029
-0.171262
-0.172144
-0.172902
-0.173508
-0.173941
-0.174226
-0.158072
-0.157624
-0.157174
-0.156565
-0.155807
-0.154926
-0.153957
-0.152939
-0.151917
-0.150935
-0.150036
-0.149261
-0.148646
-0.148219
-0.148001
-0.148001
-0.148219
-0.148645
-0.149259
-0.150033
-0.150932
-0.151914
-0.152936
-0.153954
-0.154923
-0.155804
-0.156561
-0.157171
-0.157621
-0.15807
-0.120391
-0.120187
-0.119779
-0.119188
-0.118442
-0.117572
-0.116613
-0.115606
-0.114594
-0.113621
-0.112731
-0.111964
-0.111356
-0.110933
-0.110717
-0.110717
-0.110933
-0.111354
-0.111963
-0.112729
-0.113618
-0.114591
-0.115603
-0.11661
-0.117569
-0.118439
-0.119185
-0.119776
-0.120184
-0.120388
-0.0929763
-0.0926607
-0.0922454
-0.0916621
-0.0909295
-0.0900752
-0.0891339
-0.0881453
-0.0871519
-0.0861972
-0.0853239
-0.0845713
-0.0839739
-0.0835593
-0.083347
-0.0833467
-0.0835585
-0.0839724
-0.0845693
-0.0853214
-0.0861944
-0.0871487
-0.0881419
-0.0891304
-0.0900716
-0.090926
-0.0916587
-0.0922422
-0.0926577
-0.0929734
-0.0701704
-0.0698943
-0.0694973
-0.0689326
-0.0682212
-0.0673908
-0.0664756
-0.0655143
-0.0645483
-0.0636201
-0.062771
-0.0620393
-0.0614586
-0.0610557
-0.0608493
-0.060849
-0.0610548
-0.0614571
-0.0620372
-0.0627685
-0.0636173
-0.0645452
-0.0655109
-0.066472
-0.0673871
-0.0682175
-0.0689291
-0.069494
-0.0698911
-0.0701673
-0.0513083
-0.0510515
-0.0506701
-0.0501266
-0.0494414
-0.0486415
-0.0477599
-0.0468339
-0.0459036
-0.0450097
-0.0441921
-0.0434876
-0.0429285
-0.0425406
-0.0423419
-0.0423416
-0.0425396
-0.0429269
-0.0434855
-0.0441896
-0.0450069
-0.0459005
-0.0468306
-0.0477562
-0.0486377
-0.0494376
-0.0501229
-0.0506666
-0.0510482
-0.0513051
-0.0354525
-0.035218
-0.0348559
-0.034338
-0.0336844
-0.0329212
-0.03208
-0.0311966
-0.0303091
-0.0294565
-0.0286767
-0.0280049
-0.0274718
-0.027102
-0.0269125
-0.0269122
-0.027101
-0.0274702
-0.0280028
-0.0286742
-0.0294538
-0.0303061
-0.0311932
-0.0320763
-0.0329173
-0.0336804
-0.034334
-0.0348521
-0.0352143
-0.0354489
-0.0219933
-0.0217787
-0.0214376
-0.0209484
-0.0203307
-0.0196092
-0.018814
-0.017979
-0.0171403
-0.0163347
-0.015598
-0.0149634
-0.0144599
-0.0141106
-0.0139317
-0.0139314
-0.0141097
-0.0144584
-0.0149614
-0.0155956
-0.016332
-0.0171372
-0.0179754
-0.01881
-0.0196049
-0.0203263
-0.020944
-0.0214334
-0.0217746
-0.0219891
-0.0104474
-0.0102517
-0.00993307
-0.00947511
-0.00889648
-0.00822063
-0.0074758
-0.00669377
-0.00590843
-0.00515419
-0.00446457
-0.00387063
-0.00339945
-0.00307267
-0.00290532
-0.00290506
-0.00307188
-0.00339813
-0.0038688
-0.00446223
-0.00515136
-0.00590506
-0.00668981
-0.00747133
-0.00821585
-0.00889157
-0.00947023
-0.00992829
-0.010247
-0.0104426
-0.000442834
-0.000265137
3.01562e-05
0.000455225
0.000992521
0.0016201
0.00231162
0.00303753
0.00376638
0.00446625
0.00510603
0.00565694
0.00609391
0.00639692
0.00655207
0.0065523
0.00639762
0.00609515
0.00565878
0.00510851
0.00446938
0.00377021
0.003042
0.00231658
0.00162539
0.000997989
0.000460711
3.56494e-05
-0.000259564
-0.000437189
0.00831942
0.00848002
0.00875147
0.00914276
0.0096375
0.0102153
0.0108519
0.0115199
0.0121905
0.0128344
0.0134228
0.0139294
0.0143312
0.0146097
0.0147524
0.0147526
0.0146104
0.0143325
0.0139314
0.0134256
0.012838
0.0121949
0.0115249
0.0108573
0.0102211
0.00964354
0.00914894
0.0087578
0.00848648
0.00832596
0.0160861
0.0162304
0.016478
0.0168353
0.0172872
0.0178148
0.018396
0.0190058
0.0196178
0.0202051
0.0207419
0.0212038
0.0215702
0.0218242
0.0219543
0.0219545
0.021825
0.0215717
0.0212062
0.0207451
0.0202092
0.0196226
0.0190112
0.0184019
0.0178211
0.0172938
0.0168422
0.0164851
0.0162376
0.0160933
0.0230663
0.0231951
0.0234192
0.023743
0.0241525
0.0246306
0.025157
0.0257092
0.0262634
0.026795
0.0272807
0.0276986
0.0280301
0.0282599
0.0283776
0.028378
0.0282609
0.0280319
0.0277014
0.0272843
0.0267994
0.0262685
0.0257151
0.0251634
0.0246374
0.0241597
0.0237505
0.0234269
0.0232029
0.0230741
0.0294418
0.0295558
0.0297573
0.0300485
0.0304168
0.0308466
0.0313199
0.0318163
0.0323142
0.0327918
0.033228
0.0336033
0.033901
0.0341075
0.0342133
0.0342137
0.0341087
0.0339033
0.0336066
0.0332321
0.0327967
0.0323199
0.0318227
0.0313269
0.0308541
0.0304245
0.0300565
0.0297655
0.0295642
0.0294502
0.0353742
0.0354743
0.035654
0.0359141
0.0362429
0.0366266
0.0370491
0.0374921
0.0379363
0.0383624
0.0387514
0.0390861
0.0393516
0.0395357
0.0396302
0.0396307
0.0395373
0.0393542
0.0390898
0.038756
0.0383679
0.0379427
0.0374992
0.0370569
0.0366349
0.0362514
0.0359227
0.0356629
0.0354833
0.0353833
0.0410111
0.0410983
0.0412574
0.0414879
0.0417794
0.0421197
0.0424943
0.042887
0.0432807
0.0436582
0.0440028
0.0442993
0.0445345
0.0446977
0.0447814
0.044782
0.0446994
0.0445375
0.0443035
0.044008
0.0436644
0.0432877
0.0428948
0.0425028
0.0421287
0.0417887
0.0414973
0.0412668
0.0411079
0.0410209
0.0464913
0.0465662
0.0467061
0.0469091
0.0471659
0.0474657
0.0477958
0.0481417
0.0484884
0.0488207
0.049124
0.0493849
0.0495919
0.0497356
0.0498094
0.04981
0.0497375
0.0495952
0.0493894
0.0491296
0.0488272
0.0484958
0.0481499
0.0478048
0.0474753
0.0471758
0.0469191
0.0467162
0.0465765
0.0465018
0.0519496
0.0520129
0.0521351
0.0523127
0.0525377
0.0528003
0.0530893
0.0533921
0.0536955
0.0539861
0.0542514
0.0544797
0.0546607
0.0547864
0.0548511
0.0548518
0.0547885
0.0546642
0.0544844
0.0542573
0.0539929
0.0537031
0.0534005
0.0530985
0.0528102
0.052548
0.0523234
0.0521459
0.052024
0.0519609
0.0575227
0.0575752
0.0576812
0.0578357
0.0580315
0.0582602
0.0585118
0.0587752
0.0590391
0.0592919
0.0595226
0.0597211
0.0598787
0.0599881
0.0600444
0.0600452
0.0599904
0.0598824
0.0597263
0.0595289
0.059299
0.0590469
0.0587837
0.058521
0.0582702
0.0580421
0.0578467
0.0576926
0.0575871
0.057535
0.0633571
0.063399
0.0634902
0.0636238
0.0637933
0.0639913
0.064209
0.064437
0.0646653
0.064884
0.0650837
0.0652556
0.0653919
0.0654867
0.0655356
0.0655364
0.0654892
0.065396
0.065261
0.0650902
0.0648913
0.0646733
0.0644456
0.0642184
0.0640014
0.0638041
0.0636352
0.0635022
0.0634117
0.0633701
0.0696187
0.06965
0.0697277
0.0698425
0.0699884
0.070159
0.0703466
0.070543
0.0707397
0.0709281
0.0711001
0.0712482
0.0713657
0.0714474
0.0714896
0.0714905
0.07145
0.0713698
0.0712536
0.0711066
0.0709354
0.0707478
0.070552
0.0703564
0.0701697
0.0699998
0.0698546
0.0697406
0.0696635
0.0696326
0.0765093
0.0765292
0.0765949
0.076693
0.0768181
0.0769644
0.0771254
0.0772939
0.0774627
0.0776245
0.0777721
0.0778992
0.0780001
0.0780703
0.0781067
0.0781077
0.078073
0.0780043
0.0779047
0.0777787
0.077632
0.0774713
0.0773035
0.0771359
0.0769758
0.0768302
0.076706
0.0766088
0.0765438
0.0765242
0.0842906
0.0842978
0.0843526
0.0844359
0.0845426
0.0846677
0.0848054
0.0849498
0.0850943
0.0852328
0.0853593
0.0854682
0.0855546
0.0856149
0.0856463
0.0856473
0.0856178
0.0855591
0.0854739
0.0853662
0.0852409
0.0851035
0.0849601
0.0848169
0.08468
0.0845557
0.0844499
0.0843674
0.0843134
0.0843066
0.0933219
0.0933138
0.0933587
0.0934289
0.0935196
0.0936263
0.0937441
0.0938676
0.0939913
0.09411
0.0942184
0.0943117
0.0943859
0.0944378
0.0944649
0.0944659
0.0944406
0.0943905
0.0943178
0.0942258
0.0941188
0.0940014
0.093879
0.0937567
0.0936398
0.0935339
0.093444
0.0933745
0.0933304
0.093339
0.104117
0.104091
0.104126
0.104185
0.104262
0.104353
0.104454
0.10456
0.104666
0.104768
0.104862
0.104942
0.105006
0.105051
0.105074
0.105075
0.105054
0.105011
0.104948
0.104869
0.104778
0.104678
0.104573
0.104468
0.104368
0.104278
0.104201
0.104143
0.104108
0.104136
0.117433
0.117383
0.11741
0.11746
0.117525
0.117603
0.11769
0.117782
0.117873
0.117962
0.118042
0.118112
0.118168
0.118207
0.118227
0.118228
0.11821
0.118172
0.118119
0.118051
0.117972
0.117885
0.117795
0.117705
0.117619
0.117542
0.117477
0.117428
0.117401
0.117452
0.134358
0.134269
0.134288
0.13433
0.134386
0.134454
0.134529
0.134609
0.13469
0.134767
0.134838
0.134899
0.134948
0.134982
0.135001
0.135002
0.134985
0.134953
0.134906
0.134847
0.134778
0.134702
0.134624
0.134545
0.13447
0.134403
0.134348
0.134307
0.134288
0.134378
0.156426
0.156347
0.15636
0.156394
0.156443
0.156503
0.15657
0.156641
0.156713
0.156782
0.156845
0.1569
0.156944
0.156975
0.156991
0.156992
0.156978
0.156949
0.156907
0.156854
0.156793
0.156726
0.156656
0.156586
0.15652
0.156461
0.156412
0.156379
0.156366
0.156447
0.187847
0.187967
0.188014
0.18805
0.188096
0.188151
0.188213
0.188278
0.188344
0.188408
0.188466
0.188517
0.188557
0.188586
0.188601
0.188603
0.18859
0.188563
0.188524
0.188476
0.188419
0.188358
0.188293
0.188229
0.188169
0.188115
0.188069
0.188034
0.187988
0.187867
0.23172
0.23114
0.23112
0.231132
0.231166
0.231214
0.231272
0.231333
0.231396
0.231457
0.231512
0.231561
0.2316
0.231627
0.231642
0.231643
0.231631
0.231605
0.231568
0.231522
0.231468
0.23141
0.231349
0.231288
0.231232
0.231184
0.231151
0.23114
0.231161
0.231741
-0.159596
-0.159323
-0.158901
-0.158281
-0.157497
-0.156581
-0.155571
-0.154509
-0.153441
-0.152414
-0.151474
-0.150663
-0.15002
-0.149573
-0.149344
-0.149343
-0.149572
-0.150019
-0.150662
-0.151472
-0.152412
-0.153438
-0.154506
-0.155568
-0.156578
-0.157494
-0.158278
-0.158898
-0.15932
-0.159593
-0.141317
-0.141039
-0.140621
-0.139997
-0.139212
-0.138296
-0.137286
-0.136224
-0.135157
-0.134131
-0.133191
-0.132381
-0.131738
-0.131291
-0.131063
-0.131063
-0.131291
-0.131737
-0.13238
-0.133189
-0.134128
-0.135154
-0.136221
-0.137283
-0.138293
-0.139209
-0.139994
-0.140618
-0.141036
-0.141314
-0.108524
-0.108429
-0.108034
-0.107429
-0.106657
-0.105751
-0.104752
-0.1037
-0.102643
-0.101627
-0.100696
-0.0998936
-0.0992565
-0.0988143
-0.0985878
-0.0985876
-0.0988136
-0.0992552
-0.0998918
-0.100694
-0.101624
-0.10264
-0.103697
-0.104748
-0.105748
-0.106654
-0.107426
-0.108031
-0.108426
-0.108521
-0.0855295
-0.0852987
-0.0848925
-0.0842919
-0.0835315
-0.082642
-0.0816605
-0.0806287
-0.0795911
-0.0785934
-0.0776802
-0.0768928
-0.0762675
-0.0758336
-0.0756113
-0.075611
-0.0758328
-0.0762661
-0.0768908
-0.0776778
-0.0785907
-0.0795882
-0.0806255
-0.0816571
-0.0826385
-0.0835281
-0.0842885
-0.0848893
-0.0852957
-0.0855266
-0.0648023
-0.0646209
-0.0642341
-0.0636536
-0.062916
-0.0620519
-0.0610982
-0.0600955
-0.0590873
-0.0581179
-0.0572306
-0.0564657
-0.0558583
-0.0554368
-0.0552209
-0.0552206
-0.0554359
-0.0558568
-0.0564637
-0.0572282
-0.0581152
-0.0590844
-0.0600923
-0.0610948
-0.0620483
-0.0629124
-0.0636501
-0.0642308
-0.0646178
-0.0647993
-0.0474129
-0.0472245
-0.0468477
-0.0462879
-0.0455774
-0.0447456
-0.0438277
-0.0428628
-0.0418927
-0.0409601
-0.0401066
-0.0393709
-0.0387869
-0.0383816
-0.0381739
-0.0381736
-0.0383806
-0.0387853
-0.0393689
-0.0401043
-0.0409576
-0.0418899
-0.0428596
-0.0438242
-0.0447419
-0.0455736
-0.0462841
-0.0468441
-0.0472212
-0.0474097
-0.0325405
-0.0323609
-0.0320007
-0.0314672
-0.03079
-0.0299972
-0.0291223
-0.0282029
-0.0272787
-0.0263903
-0.0255774
-0.0248768
-0.0243207
-0.0239349
-0.0237372
-0.0237369
-0.0239339
-0.0243192
-0.024875
-0.0255753
-0.0263879
-0.027276
-0.0281997
-0.0291187
-0.0299932
-0.0307859
-0.0314631
-0.0319969
-0.0323572
-0.0325369
-0.0197809
-0.0196095
-0.0192681
-0.0187641
-0.0181245
-0.017376
-0.0165502
-0.0156825
-0.0148104
-0.0139722
-0.0132054
-0.0125447
-0.0120204
-0.0116566
-0.0114702
-0.0114699
-0.0116557
-0.012019
-0.012543
-0.0132034
-0.0139698
-0.0148075
-0.015679
-0.0165463
-0.0173718
-0.0181201
-0.0187597
-0.0192639
-0.0196054
-0.0197768
-0.00874554
-0.00858437
-0.00826412
-0.00779243
-0.00719403
-0.00649383
-0.00572151
-0.00491014
-0.00409486
-0.00331149
-0.00259495
-0.00197766
-0.00148787
-0.00114813
-0.000974117
-0.000973846
-0.00114736
-0.00148667
-0.00197606
-0.00259291
-0.00330891
-0.00409161
-0.00490626
-0.00571716
-0.00648917
-0.00718925
-0.00778771
-0.00825943
-0.00857963
-0.00874074
0.000873649
0.00102382
0.00132142
0.00175895
0.00231389
0.00296307
0.00367893
0.0044308
0.00518612
0.0059117
0.00657523
0.00714673
0.00760012
0.00791457
0.00807561
0.00807584
0.00791526
0.00760128
0.00714841
0.00657751
0.0059147
0.00518988
0.00443521
0.00368376
0.00296816
0.00231911
0.00176422
0.00132681
0.00102933
0.00087929
0.00933692
0.00947554
0.00974964
0.010152
0.0106623
0.011259
0.0119169
0.0126076
0.0133014
0.0139676
0.0145767
0.0151012
0.0155173
0.0158058
0.0159536
0.0159538
0.0158065
0.0155185
0.0151031
0.0145794
0.0139711
0.0133056
0.0126125
0.0119222
0.0112646
0.010668
0.010158
0.00975584
0.00948192
0.00934341
0.0168655
0.0169924
0.0172427
0.0176098
0.0180752
0.0186192
0.0192188
0.0198482
0.0204801
0.0210867
0.0216412
0.0221186
0.0224973
0.0227598
0.0228943
0.0228946
0.0227606
0.0224987
0.0221209
0.0216443
0.0210907
0.0204847
0.0198534
0.0192245
0.0186252
0.0180815
0.0176164
0.0172497
0.0169995
0.0168727
0.0236514
0.0237666
0.0239935
0.0243258
0.0247469
0.025239
0.0257812
0.0263501
0.0269212
0.0274692
0.02797
0.0284011
0.028743
0.0289801
0.0291015
0.0291018
0.0289811
0.0287448
0.0284038
0.0279735
0.0274735
0.0269262
0.0263557
0.0257873
0.0252455
0.0247537
0.0243331
0.0240011
0.0237744
0.0236593
0.0298644
0.0299683
0.0301724
0.0304709
0.030849
0.0312908
0.0317774
0.0322879
0.0328001
0.0332914
0.0337403
0.0341267
0.0344332
0.0346458
0.0347547
0.0347551
0.034647
0.0344355
0.03413
0.0337444
0.0332963
0.0328056
0.032294
0.0317842
0.031298
0.0308566
0.0304789
0.0301806
0.0299768
0.0298731
0.0356575
0.0357505
0.0359327
0.0361989
0.036536
0.0369298
0.0373634
0.0378182
0.0382743
0.0387118
0.0391114
0.0394553
0.0397282
0.0399174
0.0400145
0.040015
0.039919
0.0397308
0.0394591
0.0391161
0.0387173
0.0382805
0.0378251
0.037371
0.0369379
0.0365445
0.0362077
0.0359416
0.0357597
0.0356668
0.0411712
0.041254
0.0414155
0.0416513
0.0419498
0.0422984
0.0426822
0.0430846
0.0434881
0.0438751
0.0442284
0.0445325
0.0447738
0.0449412
0.0450271
0.0450277
0.044943
0.0447768
0.0445367
0.0442336
0.0438812
0.043495
0.0430922
0.0426905
0.0423073
0.0419591
0.0416608
0.0414252
0.0412639
0.0411812
0.0465381
0.0466114
0.0467537
0.0469612
0.0472238
0.0475305
0.0478681
0.048222
0.0485767
0.0489166
0.0492271
0.0494942
0.0497062
0.0498533
0.0499289
0.0499295
0.0498552
0.0497094
0.0494987
0.0492326
0.0489231
0.0485838
0.0482299
0.0478769
0.0475401
0.0472339
0.0469715
0.0467642
0.0466221
0.0465489
0.051887
0.0519517
0.0520764
0.0522579
0.0524876
0.0527558
0.0530509
0.0533601
0.0536699
0.0539668
0.0542379
0.0544712
0.0546563
0.0547848
0.0548509
0.0548515
0.0547868
0.0546597
0.0544759
0.0542437
0.0539735
0.0536773
0.0533683
0.0530599
0.0527656
0.052498
0.0522687
0.0520876
0.0519632
0.0518987
0.0573476
0.0574047
0.0575134
0.0576713
0.057871
0.0581041
0.0583606
0.0586292
0.0588982
0.059156
0.0593913
0.059594
0.0597548
0.0598664
0.0599239
0.0599247
0.0598687
0.0597585
0.0595991
0.0593976
0.059163
0.0589059
0.0586375
0.0583698
0.0581141
0.0578816
0.0576825
0.0575251
0.0574169
0.0573601
0.0630568
0.0631071
0.0632014
0.063338
0.0635107
0.0637123
0.063934
0.0641661
0.0643985
0.0646212
0.0648245
0.0649997
0.0651386
0.0652352
0.065285
0.0652858
0.0652376
0.0651426
0.065005
0.064831
0.0646284
0.0644063
0.0641746
0.0639434
0.0637226
0.0635218
0.0633497
0.0632137
0.0631199
0.0630699
0.0691667
0.0692112
0.0692928
0.0694105
0.0695592
0.0697327
0.0699234
0.070123
0.0703229
0.0705145
0.0706894
0.0708401
0.0709596
0.0710427
0.0710856
0.0710865
0.0710452
0.0709636
0.0708454
0.0706958
0.0705218
0.070331
0.070132
0.0699334
0.0697435
0.0695708
0.0694229
0.069306
0.069225
0.0691807
0.0758578
0.0758976
0.0759684
0.0760694
0.0761969
0.0763456
0.0765091
0.0766801
0.0768514
0.0770156
0.0771655
0.0772946
0.0773971
0.0774684
0.0775054
0.0775063
0.077471
0.0774013
0.0773001
0.0771721
0.0770232
0.0768601
0.0766898
0.0765197
0.0763571
0.0762093
0.0760826
0.0759824
0.0759124
0.0758728
0.0833582
0.0833945
0.0834559
0.0835425
0.0836515
0.0837785
0.0839181
0.0840644
0.0842108
0.0843512
0.0844795
0.08459
0.0846777
0.0847388
0.0847706
0.0847715
0.0847415
0.084682
0.0845957
0.0844865
0.0843595
0.0842202
0.0840749
0.0839297
0.0837909
0.0836647
0.0835565
0.0834709
0.0834102
0.0833744
0.0919736
0.0920067
0.0920605
0.0921344
0.0922274
0.0923358
0.092455
0.09258
0.0927053
0.0928254
0.0929352
0.0930297
0.0931049
0.0931574
0.0931847
0.0931856
0.0931601
0.0931094
0.0930357
0.0929426
0.0928343
0.0927155
0.0925917
0.0924678
0.0923495
0.0922419
0.0921495
0.0920764
0.0920235
0.091991
0.102135
0.102164
0.102212
0.102275
0.102354
0.102447
0.102549
0.102656
0.102764
0.102867
0.102961
0.103042
0.103107
0.103152
0.103176
0.103177
0.103155
0.103112
0.103049
0.102969
0.102876
0.102775
0.102669
0.102563
0.102462
0.10237
0.102291
0.102229
0.102182
0.102153
0.114477
0.1145
0.114542
0.114597
0.114665
0.114745
0.114833
0.114925
0.115018
0.115107
0.115188
0.115259
0.115315
0.115354
0.115375
0.115376
0.115357
0.11532
0.115265
0.115197
0.115117
0.11503
0.114939
0.114847
0.11476
0.114681
0.114614
0.11456
0.114519
0.114496
0.129941
0.129941
0.129978
0.130025
0.130084
0.130154
0.13023
0.130311
0.130392
0.13047
0.130541
0.130603
0.130652
0.130687
0.130705
0.130706
0.13069
0.130657
0.13061
0.13055
0.130481
0.130405
0.130325
0.130246
0.13017
0.130102
0.130043
0.129997
0.129961
0.129961
0.149779
0.149721
0.149742
0.14978
0.149831
0.149893
0.149961
0.150032
0.150105
0.150174
0.150238
0.150293
0.150337
0.150369
0.150385
0.150386
0.150372
0.150342
0.1503
0.150247
0.150185
0.150118
0.150047
0.149977
0.14991
0.149849
0.149799
0.149761
0.149741
0.149799
0.175527
0.175673
0.175727
0.175769
0.175819
0.175876
0.175938
0.176004
0.176071
0.176134
0.176193
0.176244
0.176285
0.176314
0.176329
0.176331
0.176317
0.17629
0.176251
0.176203
0.176146
0.176084
0.176019
0.175955
0.175893
0.175837
0.175788
0.175747
0.175693
0.175547
0.212265
0.211737
0.21175
0.211773
0.211813
0.211864
0.211923
0.211985
0.212048
0.212109
0.212165
0.212213
0.212253
0.212281
0.212296
0.212297
0.212284
0.212258
0.212221
0.212175
0.212121
0.212062
0.212001
0.211939
0.211882
0.211832
0.211793
0.211771
0.211758
0.212286
-0.11669
-0.116568
-0.116146
-0.115486
-0.114644
-0.113655
-0.112561
-0.111409
-0.11025
-0.109134
-0.108112
-0.107229
-0.106528
-0.106042
-0.105792
-0.105792
-0.106041
-0.106527
-0.107228
-0.10811
-0.109132
-0.110248
-0.111407
-0.112558
-0.113652
-0.114641
-0.115483
-0.116143
-0.116565
-0.116687
-0.112186
-0.111944
-0.111506
-0.110839
-0.109996
-0.109006
-0.107912
-0.106761
-0.105603
-0.104487
-0.103465
-0.102583
-0.101881
-0.101395
-0.101145
-0.101145
-0.101394
-0.10188
-0.102581
-0.103463
-0.104485
-0.1056
-0.106759
-0.10791
-0.109003
-0.109993
-0.110836
-0.111503
-0.111941
-0.112183
-0.0899377
-0.0898186
-0.0893863
-0.0887374
-0.0879064
-0.0869288
-0.0858475
-0.084709
-0.0835627
-0.082459
-0.0814477
-0.0805749
-0.0798813
-0.0793997
-0.079153
-0.0791528
-0.0793991
-0.0798802
-0.0805733
-0.0814456
-0.0824567
-0.0835601
-0.0847062
-0.0858446
-0.0869257
-0.0879032
-0.0887342
-0.0893832
-0.0898157
-0.089935
-0.0732756
-0.0730267
-0.0725864
-0.0719411
-0.0711231
-0.070164
-0.0691042
-0.0679888
-0.0668659
-0.0657849
-0.0647944
-0.0639396
-0.0632603
-0.0627887
-0.062547
-0.0625467
-0.0627879
-0.0632591
-0.0639378
-0.0647922
-0.0657824
-0.0668632
-0.0679859
-0.0691011
-0.0701607
-0.0711197
-0.0719378
-0.0725833
-0.0730237
-0.0732727
-0.0560993
-0.0559037
-0.0554853
-0.0548632
-0.0540714
-0.053142
-0.0521147
-0.0510334
-0.0499449
-0.0488973
-0.0479374
-0.0471092
-0.0464513
-0.0459944
-0.0457603
-0.04576
-0.0459935
-0.0464499
-0.0471075
-0.0479353
-0.0488949
-0.0499423
-0.0510305
-0.0521115
-0.0531385
-0.0540678
-0.0548597
-0.0554819
-0.0559005
-0.0560963
-0.0411925
-0.0409788
-0.0405706
-0.039971
-0.0392097
-0.0383171
-0.037331
-0.0362933
-0.035249
-0.034244
-0.0333235
-0.0325294
-0.0318986
-0.0314607
-0.0312363
-0.0312359
-0.0314598
-0.0318973
-0.0325277
-0.0333215
-0.0342418
-0.0352464
-0.0362903
-0.0373276
-0.0383133
-0.0392057
-0.0399671
-0.040567
-0.0409754
-0.0411891
-0.0279617
-0.0277585
-0.0273702
-0.0268001
-0.0260764
-0.0252281
-0.0242911
-0.0233053
-0.0223135
-0.0213593
-0.0204854
-0.0197318
-0.0191332
-0.0187177
-0.0185048
-0.0185044
-0.0187168
-0.0191319
-0.0197301
-0.0204835
-0.0213571
-0.0223109
-0.0233022
-0.0242874
-0.025224
-0.0260721
-0.0267959
-0.0273662
-0.0277547
-0.0279579
-0.0163596
-0.0161649
-0.0157979
-0.0152606
-0.014579
-0.0137804
-0.0128987
-0.0119714
-0.0110386
-0.0101414
-0.00932
-0.00861176
-0.00804939
-0.00765905
-0.00745903
-0.00745872
-0.00765818
-0.00804811
-0.0086102
-0.00931812
-0.0101391
-0.0110357
-0.0119679
-0.0128947
-0.0137761
-0.0145744
-0.0152561
-0.0157935
-0.0161606
-0.0163552
-0.00616046
-0.00597774
-0.00563471
-0.00513335
-0.00449746
-0.00375283
-0.00293091
-0.00206674
-0.00119773
-0.000362129
0.000402677
0.00106193
0.00158531
0.00194852
0.00213461
0.0021349
0.00194932
0.00158651
0.00106351
0.000404696
-0.00035951
-0.00119442
-0.00206279
-0.00292648
-0.00374811
-0.00449263
-0.00512851
-0.00562985
-0.00597286
-0.00615547
0.00283443
0.00300414
0.00332174
0.00378542
0.00437332
0.00506147
0.0058208
0.00661888
0.00742115
0.00819233
0.00889796
0.00950607
0.00998875
0.0103237
0.0104952
0.0104955
0.0103244
0.00998993
0.00950778
0.00890031
0.00819541
0.00742498
0.00662331
0.00582564
0.00506656
0.00437856
0.00379083
0.00332729
0.00300979
0.00284024
0.0108191
0.010975
0.0112664
0.0116916
0.0122304
0.012861
0.0135565
0.0142872
0.0150214
0.015727
0.0163724
0.0169284
0.0173697
0.0176759
0.0178327
0.0178329
0.0176766
0.017371
0.0169304
0.0163751
0.0157305
0.0150257
0.014292
0.0135617
0.0128665
0.0122362
0.0116977
0.0112728
0.0109815
0.0108256
0.0179713
0.0181132
0.0183783
0.018765
0.0192549
0.0198279
0.0204597
0.0211233
0.0217898
0.0224299
0.0230153
0.0235196
0.0239197
0.0241973
0.0243395
0.0243397
0.024198
0.0239212
0.0235219
0.0230185
0.0224339
0.0217944
0.0211284
0.0204653
0.0198339
0.0192613
0.0187718
0.0183855
0.0181204
0.0179786
0.0244541
0.0245821
0.0248215
0.0251704
0.0256124
0.0261291
0.0266986
0.0272964
0.0278966
0.0284728
0.0289996
0.0294534
0.0298134
0.0300631
0.0301911
0.0301914
0.0300641
0.0298152
0.0294561
0.0290032
0.0284772
0.0279016
0.0273019
0.0267046
0.0261356
0.0256194
0.025178
0.0248294
0.0245902
0.0244622
0.0304174
0.0305319
0.0307463
0.0310588
0.0314545
0.0319169
0.0324264
0.032961
0.0334975
0.0340124
0.034483
0.0348883
0.0352099
0.035433
0.0355473
0.0355477
0.0354342
0.0352121
0.0348915
0.0344871
0.0340173
0.033503
0.0329671
0.0324331
0.0319242
0.0314623
0.0310671
0.0307549
0.0305407
0.0304263
0.0359994
0.0361009
0.0362917
0.0365695
0.0369212
0.0373321
0.0377846
0.0382593
0.0387356
0.0391925
0.0396101
0.0399696
0.0402549
0.0404529
0.0405544
0.0405548
0.0404543
0.0402575
0.0399733
0.0396147
0.039198
0.0387418
0.0382662
0.0377921
0.0373402
0.0369299
0.0365785
0.036301
0.0361105
0.036009
0.0413296
0.0414189
0.0415873
0.0418326
0.0421431
0.0425058
0.0429052
0.0433239
0.0437438
0.0441467
0.0445147
0.0448316
0.045083
0.0452575
0.0453471
0.0453476
0.0452592
0.0450859
0.0448356
0.0445198
0.0441526
0.0437505
0.0433312
0.0429133
0.0425147
0.0421526
0.0418424
0.0415974
0.0414292
0.0413398
0.0465312
0.0466091
0.0467568
0.046972
0.0472444
0.0475626
0.0479128
0.0482798
0.0486478
0.0490006
0.049323
0.0496005
0.0498207
0.0499736
0.0500521
0.0500526
0.0499753
0.0498237
0.0496048
0.0493284
0.0490069
0.0486548
0.0482875
0.0479213
0.047572
0.0472545
0.0469825
0.0467676
0.0466201
0.0465423
0.0517244
0.0517916
0.0519204
0.0521081
0.0523456
0.0526229
0.0529282
0.0532479
0.0535684
0.0538756
0.0541563
0.054398
0.0545898
0.0547229
0.0547913
0.0547919
0.0547248
0.054593
0.0544026
0.0541621
0.0538823
0.0535757
0.0532559
0.052937
0.0526326
0.052356
0.052119
0.0519318
0.0518033
0.0517362
0.0570296
0.0570869
0.0571984
0.0573611
0.057567
0.0578074
0.0580719
0.0583489
0.0586264
0.0588925
0.0591355
0.0593449
0.059511
0.0596263
0.0596856
0.0596863
0.0596284
0.0595145
0.0593499
0.0591417
0.0588995
0.058634
0.0583571
0.058081
0.0578174
0.0575778
0.0573725
0.0572103
0.0570992
0.0570419
0.0625717
0.0626198
0.0627158
0.062856
0.0630335
0.0632408
0.0634688
0.0637076
0.0639467
0.064176
0.0643855
0.0645659
0.0647091
0.0648085
0.0648597
0.0648604
0.0648107
0.0647128
0.064571
0.0643918
0.0641832
0.0639546
0.0637162
0.0634783
0.0632513
0.0630448
0.0628679
0.0627283
0.0626327
0.0625848
0.0684861
0.0685257
0.0686079
0.0687282
0.0688806
0.0690585
0.0692541
0.0694589
0.0696641
0.0698608
0.0700406
0.0701954
0.0703182
0.0704035
0.0704475
0.0704483
0.0704059
0.070322
0.0702006
0.070047
0.0698682
0.0696723
0.0694681
0.0692642
0.0690695
0.0688924
0.0687408
0.0686212
0.0685394
0.0685001
0.074926
0.0749577
0.0750279
0.0751307
0.075261
0.075413
0.0755802
0.0757552
0.0759306
0.0760988
0.0762525
0.0763849
0.0764899
0.0765629
0.0766007
0.0766016
0.0765654
0.0764939
0.0763902
0.0762592
0.0761066
0.0759394
0.075765
0.0755909
0.0754246
0.0752733
0.075144
0.0750419
0.0749724
0.0749411
0.0820713
0.0820956
0.0821554
0.082243
0.0823539
0.0824834
0.0826259
0.0827751
0.0829248
0.0830683
0.0831996
0.0833126
0.0834022
0.0834647
0.083497
0.0834979
0.0834672
0.0834064
0.0833182
0.0832066
0.0830766
0.0829342
0.0827858
0.0826376
0.0824959
0.0823672
0.0822571
0.0821703
0.0821113
0.0820875
0.0901378
0.0901556
0.0902065
0.0902809
0.0903753
0.0904855
0.0906069
0.0907342
0.0908619
0.0909845
0.0910965
0.0911929
0.0912695
0.091323
0.0913507
0.0913516
0.0913256
0.0912739
0.0911988
0.0911038
0.0909931
0.0908721
0.0907458
0.0906197
0.0904992
0.0903898
0.0902961
0.0902224
0.0901723
0.0901552
0.0993836
0.0993972
0.0994409
0.0995044
0.0995848
0.0996789
0.0997827
0.0998916
0.100001
0.100106
0.100202
0.100284
0.10035
0.100396
0.10042
0.100421
0.100399
0.100354
0.10029
0.100209
0.100115
0.100012
0.0999039
0.0997964
0.0996938
0.0996005
0.0995206
0.0994579
0.099415
0.099402
0.110104
0.11012
0.110159
0.110214
0.110283
0.110364
0.110453
0.110547
0.110641
0.110731
0.110814
0.110885
0.110942
0.110982
0.111003
0.111004
0.110985
0.110947
0.110892
0.110822
0.110741
0.110652
0.11056
0.110467
0.110379
0.110299
0.110231
0.110177
0.110139
0.110123
0.12258
0.122616
0.122655
0.122704
0.122764
0.122835
0.122913
0.122994
0.123076
0.123155
0.123227
0.123289
0.123339
0.123374
0.123393
0.123394
0.123377
0.123344
0.123296
0.123235
0.123165
0.123088
0.123008
0.122927
0.122851
0.122781
0.122722
0.122674
0.122636
0.122599
0.136901
0.136943
0.136973
0.137015
0.137069
0.137131
0.1372
0.137272
0.137345
0.137415
0.13748
0.137535
0.13758
0.137612
0.137628
0.137629
0.137615
0.137585
0.137542
0.137489
0.137426
0.137358
0.137286
0.137215
0.137148
0.137086
0.137034
0.136993
0.136963
0.136921
0.151718
0.152005
0.152066
0.152113
0.152166
0.152224
0.152288
0.152354
0.152421
0.152485
0.152545
0.152596
0.152637
0.152667
0.152682
0.152683
0.15267
0.152643
0.152603
0.152554
0.152497
0.152435
0.152369
0.152304
0.152242
0.152184
0.152132
0.152086
0.152025
0.151739
0.169058
0.169262
0.169333
0.169372
0.16942
0.169474
0.169534
0.169597
0.16966
0.169721
0.169778
0.169827
0.169867
0.169895
0.16991
0.169911
0.169898
0.169872
0.169835
0.169788
0.169733
0.169674
0.169612
0.16955
0.169492
0.169438
0.169392
0.169353
0.169282
0.169079
-0.0786656
-0.0784633
-0.0779639
-0.077225
-0.0762827
-0.0751734
-0.0739451
-0.0726499
-0.0713436
-0.0700841
-0.0689281
-0.0679292
-0.0671346
-0.0665824
-0.0662996
-0.0662995
-0.066582
-0.0671338
-0.067928
-0.0689265
-0.0700821
-0.0713415
-0.0726475
-0.0739425
-0.0751705
-0.0762797
-0.0772219
-0.0779609
-0.0784604
-0.0786628
-0.083881
-0.0835493
-0.0830376
-0.0822894
-0.0813441
-0.0802339
-0.0790056
-0.0777104
-0.0764041
-0.0751444
-0.0739882
-0.0729888
-0.0721936
-0.0716408
-0.0713575
-0.0713573
-0.0716404
-0.0721928
-0.0729875
-0.0739864
-0.0751424
-0.0764019
-0.0777079
-0.079003
-0.0802311
-0.0813412
-0.0822864
-0.0830346
-0.0835464
-0.0838783
-0.0691691
-0.0689983
-0.0684996
-0.0677706
-0.0668391
-0.065743
-0.0645292
-0.063249
-0.0619579
-0.0607129
-0.0595702
-0.0585827
-0.057797
-0.057251
-0.0569712
-0.0569711
-0.0572505
-0.0577961
-0.0585812
-0.0595683
-0.0607106
-0.0619554
-0.0632464
-0.0645264
-0.0657401
-0.0668361
-0.0677675
-0.0684966
-0.0689954
-0.0691663
-0.0579732
-0.0576915
-0.057193
-0.0564707
-0.0555556
-0.054482
-0.0532943
-0.0520422
-0.0507797
-0.0495624
-0.0484453
-0.04748
-0.0467121
-0.0461784
-0.0459048
-0.0459046
-0.0461778
-0.046711
-0.0474785
-0.0484433
-0.0495601
-0.0507771
-0.0520394
-0.0532913
-0.0544788
-0.0555523
-0.0564674
-0.0571898
-0.0576884
-0.0579702
-0.0445807
-0.0443602
-0.0438881
-0.0431939
-0.0423104
-0.0412726
-0.0401241
-0.0389134
-0.0376928
-0.0365161
-0.0354365
-0.0345039
-0.033762
-0.0332465
-0.0329823
-0.032982
-0.0332458
-0.0337608
-0.0345022
-0.0354345
-0.0365137
-0.0376901
-0.0389104
-0.0401208
-0.041269
-0.0423067
-0.0431902
-0.0438845
-0.0443568
-0.0445774
-0.0325116
-0.0322737
-0.0318165
-0.0311492
-0.0303021
-0.0293082
-0.028209
-0.0270506
-0.0258832
-0.0247582
-0.0237262
-0.0228349
-0.0221261
-0.0216336
-0.0213811
-0.0213808
-0.0216328
-0.0221248
-0.0228332
-0.0237241
-0.0247557
-0.0258804
-0.0270475
-0.0282054
-0.0293043
-0.0302979
-0.031145
-0.0318125
-0.0322699
-0.0325078
-0.0212954
-0.0210737
-0.0206419
-0.02001
-0.0192075
-0.0182661
-0.0172252
-0.0161287
-0.0150239
-0.0139596
-0.0129836
-0.0121409
-0.011471
-0.0110055