/*--------------------------------*- C++ -*----------------------------------*\
| =========                 |                                                 |
| \\      /  F ield         | OpenFOAM: The Open Source CFD Toolbox           |
|  \\    /   O peration     | Version:  2506                                  |
|   \\  /    A nd           | Website:  www.openfoam.com                      |
|    \\/     M anipulation  |                                                 |
\*---------------------------------------------------------------------------*/
FoamFile
{
    version     2.0;
    format      ascii;
    arch        "LSB;label=32;scalar=64";
    class       volScalarField;
    location    "50";
    object      epsilon;
}
// * * * * * * * * * * * * * * * * * * * * * * * * * * * * * * * * * * * * * //

dimensions      [0 2 -3 0 0 0 0];

internalField   nonuniform List<scalar> 
144676
(
0.116221
0.116222
0.116222
0.116222
0.116222
0.116222
0.116222
0.116222
0.116222
0.116222
0.116222
0.116221
0.116221
0.116221
0.116221
0.116221
0.116221
0.116221
0.116221
0.116222
0.116222
0.116222
0.116222
0.116222
0.116222
0.116222
0.116222
0.116222
0.116222
0.116221
0.0471263
0.0471263
0.0471264
0.0471265
0.0471266
0.0471267
0.0471268
0.0471269
0.047127
0.0471271
0.0471272
0.0471273
0.0471274
0.0471274
0.0471275
0.0471275
0.0471274
0.0471274
0.0471273
0.0471272
0.0471271
0.047127
0.0471269
0.0471268
0.0471267
0.0471266
0.0471265
0.0471264
0.0471263
0.0471262
0.0283366
0.0283366
0.0283366
0.0283367
0.0283367
0.0283368
0.0283369
0.028337
0.0283371
0.0283372
0.0283372
0.0283373
0.0283373
0.0283374
0.0283374
0.0283374
0.0283374
0.0283373
0.0283373
0.0283372
0.0283372
0.0283371
0.028337
0.0283369
0.0283368
0.0283367
0.0283367
0.0283366
0.0283366
0.0283366
0.0202978
0.0202978
0.0202978
0.0202979
0.0202979
0.020298
0.020298
0.0202981
0.0202982
0.0202982
0.0202983
0.0202984
0.0202984
0.0202984
0.0202984
0.0202984
0.0202984
0.0202984
0.0202984
0.0202983
0.0202982
0.0202982
0.0202981
0.020298
0.020298
0.0202979
0.0202979
0.0202978
0.0202978
0.0202978
0.0158297
0.0158297
0.0158298
0.0158298
0.0158298
0.0158299
0.0158299
0.01583
0.0158301
0.0158301
0.0158302
0.0158302
0.0158303
0.0158303
0.0158303
0.0158303
0.0158303
0.0158303
0.0158302
0.0158302
0.0158301
0.0158301
0.01583
0.0158299
0.0158299
0.0158298
0.0158298
0.0158298
0.0158297
0.0158297
0.0129789
0.0129789
0.0129789
0.0129789
0.012979
0.012979
0.012979
0.0129791
0.0129791
0.0129792
0.0129792
0.0129793
0.0129793
0.0129793
0.0129793
0.0129793
0.0129793
0.0129793
0.0129793
0.0129792
0.0129792
0.0129791
0.0129791
0.012979
0.012979
0.012979
0.0129789
0.0129789
0.0129789
0.0129789
0.0109995
0.0109995
0.0109995
0.0109995
0.0109995
0.0109996
0.0109996
0.0109997
0.0109997
0.0109997
0.0109998
0.0109998
0.0109999
0.0109999
0.0109999
0.0109999
0.0109999
0.0109999
0.0109998
0.0109998
0.0109997
0.0109997
0.0109997
0.0109996
0.0109996
0.0109995
0.0109995
0.0109995
0.0109995
0.0109995
0.00954432
0.00954432
0.00954433
0.00954436
0.00954438
0.00954442
0.00954445
0.00954449
0.00954453
0.00954457
0.0095446
0.00954463
0.00954465
0.00954467
0.00954468
0.00954468
0.00954467
0.00954465
0.00954463
0.0095446
0.00954457
0.00954453
0.00954449
0.00954445
0.00954441
0.00954438
0.00954435
0.00954433
0.00954432
0.00954432
0.00842932
0.00842932
0.00842933
0.00842935
0.00842937
0.0084294
0.00842943
0.00842947
0.0084295
0.00842953
0.00842956
0.00842959
0.00842961
0.00842962
0.00842963
0.00842963
0.00842962
0.00842961
0.00842959
0.00842956
0.00842953
0.0084295
0.00842947
0.00842943
0.0084294
0.00842937
0.00842935
0.00842933
0.00842932
0.00842932
0.00754761
0.00754761
0.00754762
0.00754763
0.00754765
0.00754768
0.00754771
0.00754774
0.00754777
0.00754779
0.00754782
0.00754784
0.00754786
0.00754787
0.00754788
0.00754788
0.00754787
0.00754786
0.00754784
0.00754782
0.00754779
0.00754776
0.00754773
0.00754771
0.00754768
0.00754765
0.00754763
0.00754762
0.00754761
0.00754761
0.00683289
0.00683288
0.00683289
0.0068329
0.00683292
0.00683294
0.00683296
0.00683299
0.00683301
0.00683304
0.00683306
0.00683308
0.0068331
0.00683311
0.00683311
0.00683311
0.00683311
0.00683309
0.00683308
0.00683306
0.00683304
0.00683301
0.00683299
0.00683296
0.00683294
0.00683292
0.0068329
0.00683289
0.00683288
0.00683288
0.00624179
0.00624179
0.00624179
0.0062418
0.00624182
0.00624184
0.00624186
0.00624188
0.0062419
0.00624192
0.00624194
0.00624196
0.00624197
0.00624198
0.00624199
0.00624199
0.00624198
0.00624197
0.00624196
0.00624194
0.00624192
0.0062419
0.00624188
0.00624186
0.00624184
0.00624182
0.0062418
0.00624179
0.00624179
0.00624179
0.00574481
0.0057448
0.0057448
0.00574481
0.00574482
0.00574484
0.00574486
0.00574488
0.0057449
0.00574491
0.00574493
0.00574494
0.00574495
0.00574496
0.00574497
0.00574497
0.00574496
0.00574495
0.00574494
0.00574493
0.00574491
0.00574489
0.00574488
0.00574486
0.00574484
0.00574482
0.00574481
0.0057448
0.0057448
0.0057448
0.0053211
0.0053211
0.0053211
0.0053211
0.00532112
0.00532113
0.00532114
0.00532116
0.00532118
0.00532119
0.0053212
0.00532122
0.00532123
0.00532123
0.00532124
0.00532124
0.00532123
0.00532122
0.00532122
0.0053212
0.00532119
0.00532117
0.00532116
0.00532114
0.00532113
0.00532111
0.0053211
0.0053211
0.00532109
0.0053211
0.00495558
0.00495558
0.00495558
0.00495558
0.00495559
0.0049556
0.00495562
0.00495563
0.00495564
0.00495566
0.00495567
0.00495568
0.00495568
0.00495569
0.00495569
0.00495569
0.00495569
0.00495568
0.00495568
0.00495567
0.00495565
0.00495564
0.00495563
0.00495561
0.0049556
0.00495559
0.00495558
0.00495558
0.00495558
0.00495558
0.00463703
0.00463703
0.00463702
0.00463703
0.00463704
0.00463705
0.00463706
0.00463707
0.00463708
0.00463709
0.0046371
0.00463711
0.00463712
0.00463712
0.00463712
0.00463712
0.00463712
0.00463712
0.00463711
0.0046371
0.00463709
0.00463708
0.00463707
0.00463706
0.00463705
0.00463704
0.00463703
0.00463702
0.00463702
0.00463703
0.00435694
0.00435693
0.00435693
0.00435694
0.00435694
0.00435695
0.00435696
0.00435697
0.00435698
0.00435699
0.004357
0.004357
0.00435701
0.00435701
0.00435701
0.00435701
0.00435701
0.00435701
0.004357
0.004357
0.00435699
0.00435698
0.00435697
0.00435696
0.00435695
0.00435694
0.00435693
0.00435693
0.00435693
0.00435694
0.00410873
0.00410873
0.00410873
0.00410873
0.00410874
0.00410874
0.00410875
0.00410876
0.00410877
0.00410878
0.00410878
0.00410879
0.00410879
0.0041088
0.0041088
0.0041088
0.0041088
0.00410879
0.00410879
0.00410878
0.00410878
0.00410877
0.00410876
0.00410875
0.00410874
0.00410874
0.00410873
0.00410873
0.00410873
0.00410873
0.00388726
0.00388726
0.00388726
0.00388726
0.00388727
0.00388727
0.00388728
0.00388729
0.00388729
0.0038873
0.00388731
0.00388731
0.00388731
0.00388732
0.00388732
0.00388732
0.00388732
0.00388731
0.00388731
0.0038873
0.0038873
0.00388729
0.00388729
0.00388728
0.00388727
0.00388727
0.00388726
0.00388726
0.00388726
0.00388726
0.00368843
0.00368842
0.00368842
0.00368842
0.00368843
0.00368843
0.00368844
0.00368845
0.00368845
0.00368846
0.00368846
0.00368847
0.00368847
0.00368847
0.00368847
0.00368847
0.00368847
0.00368847
0.00368847
0.00368846
0.00368846
0.00368845
0.00368845
0.00368844
0.00368843
0.00368843
0.00368842
0.00368842
0.00368842
0.00368843
0.00350892
0.00350892
0.00350891
0.00350892
0.00350892
0.00350893
0.00350893
0.00350894
0.00350894
0.00350895
0.00350895
0.00350895
0.00350896
0.00350896
0.00350896
0.00350896
0.00350896
0.00350896
0.00350895
0.00350895
0.00350895
0.00350894
0.00350894
0.00350893
0.00350893
0.00350892
0.00350892
0.00350891
0.00350891
0.00350892
0.00334605
0.00334605
0.00334605
0.00334605
0.00334605
0.00334606
0.00334606
0.00334607
0.00334607
0.00334607
0.00334608
0.00334608
0.00334608
0.00334608
0.00334608
0.00334608
0.00334608
0.00334608
0.00334608
0.00334608
0.00334607
0.00334607
0.00334607
0.00334606
0.00334606
0.00334605
0.00334605
0.00334605
0.00334605
0.00334605
0.00319761
0.00319761
0.00319761
0.00319761
0.00319761
0.00319762
0.00319762
0.00319762
0.00319763
0.00319763
0.00319763
0.00319764
0.00319764
0.00319764
0.00319764
0.00319764
0.00319764
0.00319764
0.00319764
0.00319763
0.00319763
0.00319763
0.00319762
0.00319762
0.00319762
0.00319761
0.00319761
0.0031976
0.0031976
0.00319761
0.00306176
0.00306176
0.00306176
0.00306176
0.00306177
0.00306177
0.00306178
0.00306178
0.00306178
0.00306178
0.00306179
0.00306179
0.00306179
0.00306179
0.00306179
0.00306179
0.00306179
0.00306179
0.00306179
0.00306179
0.00306178
0.00306178
0.00306178
0.00306177
0.00306177
0.00306177
0.00306176
0.00306176
0.00306176
0.00306176
0.00293699
0.00293699
0.002937
0.002937
0.002937
0.00293701
0.00293701
0.00293701
0.00293702
0.00293702
0.00293702
0.00293702
0.00293702
0.00293702
0.00293702
0.00293702
0.00293702
0.00293702
0.00293702
0.00293702
0.00293702
0.00293701
0.00293701
0.00293701
0.00293701
0.002937
0.002937
0.00293699
0.00293699
0.00293699
0.00282207
0.00282207
0.00282207
0.00282207
0.00282208
0.00282208
0.00282208
0.00282209
0.00282209
0.00282209
0.00282209
0.00282209
0.00282209
0.00282209
0.0028221
0.0028221
0.00282209
0.00282209
0.00282209
0.00282209
0.00282209
0.00282209
0.00282209
0.00282208
0.00282208
0.00282208
0.00282207
0.00282207
0.00282207
0.00282207
0.00271606
0.00271606
0.00271607
0.00271607
0.00271607
0.00271608
0.00271608
0.00271608
0.00271608
0.00271608
0.00271609
0.00271609
0.00271609
0.00271609
0.00271609
0.00271609
0.00271609
0.00271609
0.00271609
0.00271609
0.00271608
0.00271608
0.00271608
0.00271608
0.00271608
0.00271607
0.00271607
0.00271607
0.00271606
0.00271606
0.00261862
0.00261862
0.00261862
0.00261863
0.00261863
0.00261863
0.00261863
0.00261864
0.00261864
0.00261864
0.00261864
0.00261864
0.00261864
0.00261864
0.00261864
0.00261864
0.00261864
0.00261864
0.00261864
0.00261864
0.00261864
0.00261864
0.00261864
0.00261863
0.00261863
0.00261863
0.00261863
0.00261862
0.00261862
0.00261862
0.00253112
0.00253112
0.00253112
0.00253112
0.00253113
0.00253113
0.00253113
0.00253113
0.00253113
0.00253113
0.00253113
0.00253113
0.00253113
0.00253113
0.00253113
0.00253113
0.00253113
0.00253113
0.00253113
0.00253113
0.00253113
0.00253113
0.00253113
0.00253113
0.00253113
0.00253112
0.00253112
0.00253112
0.00253112
0.00253112
0.00246258
0.00246258
0.00246258
0.00246258
0.00246258
0.00246259
0.00246259
0.00246259
0.00246259
0.00246259
0.00246259
0.00246259
0.00246259
0.00246259
0.00246259
0.00246259
0.00246259
0.00246259
0.00246259
0.00246259
0.00246259
0.00246259
0.00246259
0.00246259
0.00246259
0.00246258
0.00246258
0.00246258
0.00246258
0.00246258
0.0963941
0.0963957
0.0963959
0.0963959
0.0963956
0.0963953
0.0963949
0.0963945
0.096394
0.0963936
0.0963932
0.0963928
0.0963924
0.0963923
0.0963922
0.0963923
0.0963924
0.0963926
0.0963928
0.0963932
0.0963937
0.0963941
0.0963945
0.0963949
0.0963953
0.0963956
0.0963959
0.096396
0.0963958
0.0963942
0.0468489
0.0468487
0.0468488
0.046849
0.0468492
0.0468495
0.0468498
0.04685
0.0468503
0.0468506
0.0468509
0.0468511
0.0468513
0.0468514
0.0468515
0.0468515
0.0468514
0.0468513
0.0468511
0.0468509
0.0468506
0.0468503
0.04685
0.0468497
0.0468495
0.0468492
0.046849
0.0468487
0.0468486
0.0468489
0.0283963
0.0283962
0.0283962
0.0283963
0.0283965
0.0283966
0.0283968
0.0283971
0.0283973
0.0283975
0.0283977
0.0283978
0.0283979
0.028398
0.0283981
0.0283981
0.028398
0.0283979
0.0283978
0.0283976
0.0283975
0.0283973
0.0283971
0.0283968
0.0283966
0.0283964
0.0283963
0.0283962
0.0283962
0.0283963
0.0202999
0.0202999
0.0202999
0.0203
0.0203001
0.0203002
0.0203004
0.0203005
0.0203007
0.0203009
0.020301
0.0203011
0.0203012
0.0203013
0.0203014
0.0203014
0.0203013
0.0203012
0.0203011
0.020301
0.0203009
0.0203007
0.0203005
0.0203004
0.0203002
0.0203001
0.0203
0.0202999
0.0202998
0.0202999
0.0158172
0.0158171
0.0158172
0.0158173
0.0158173
0.0158175
0.0158176
0.0158177
0.0158179
0.015818
0.0158181
0.0158182
0.0158183
0.0158184
0.0158184
0.0158184
0.0158184
0.0158183
0.0158182
0.0158181
0.015818
0.0158179
0.0158177
0.0158176
0.0158175
0.0158173
0.0158172
0.0158172
0.0158171
0.0158171
0.0129661
0.0129661
0.0129661
0.0129662
0.0129662
0.0129663
0.0129665
0.0129666
0.0129667
0.0129668
0.0129669
0.012967
0.0129671
0.0129671
0.0129671
0.0129671
0.0129671
0.0129671
0.012967
0.0129669
0.0129668
0.0129667
0.0129666
0.0129665
0.0129663
0.0129662
0.0129662
0.0129661
0.0129661
0.0129661
0.010989
0.010989
0.010989
0.0109891
0.0109891
0.0109892
0.0109893
0.0109894
0.0109895
0.0109896
0.0109897
0.0109898
0.0109899
0.0109899
0.0109899
0.0109899
0.0109899
0.0109899
0.0109898
0.0109897
0.0109896
0.0109895
0.0109894
0.0109893
0.0109892
0.0109891
0.0109891
0.010989
0.010989
0.010989
0.00953616
0.00953615
0.00953617
0.00953622
0.00953628
0.00953635
0.00953644
0.00953652
0.00953661
0.0095367
0.00953678
0.00953685
0.0095369
0.00953694
0.00953696
0.00953696
0.00953694
0.0095369
0.00953684
0.00953678
0.0095367
0.00953661
0.00953652
0.00953643
0.00953635
0.00953627
0.00953621
0.00953617
0.00953615
0.00953615
0.00842299
0.00842298
0.008423
0.00842303
0.00842309
0.00842315
0.00842323
0.0084233
0.00842338
0.00842345
0.00842352
0.00842358
0.00842363
0.00842366
0.00842368
0.00842368
0.00842366
0.00842363
0.00842358
0.00842352
0.00842345
0.00842338
0.0084233
0.00842322
0.00842315
0.00842308
0.00842303
0.00842299
0.00842298
0.00842298
0.00754266
0.00754265
0.00754267
0.0075427
0.00754274
0.0075428
0.00754286
0.00754293
0.007543
0.00754306
0.00754312
0.00754317
0.00754321
0.00754324
0.00754325
0.00754325
0.00754324
0.00754321
0.00754317
0.00754312
0.00754306
0.00754299
0.00754293
0.00754286
0.0075428
0.00754274
0.00754269
0.00754266
0.00754265
0.00754266
0.00682897
0.00682896
0.00682897
0.00682899
0.00682903
0.00682908
0.00682914
0.00682919
0.00682925
0.00682931
0.00682936
0.0068294
0.00682944
0.00682946
0.00682947
0.00682947
0.00682946
0.00682944
0.0068294
0.00682936
0.00682931
0.00682925
0.00682919
0.00682913
0.00682908
0.00682903
0.00682899
0.00682896
0.00682896
0.00682896
0.00623865
0.00623864
0.00623865
0.00623867
0.0062387
0.00623874
0.00623879
0.00623884
0.00623889
0.00623894
0.00623898
0.00623902
0.00623905
0.00623907
0.00623908
0.00623908
0.00623907
0.00623904
0.00623901
0.00623898
0.00623893
0.00623889
0.00623884
0.00623879
0.00623874
0.0062387
0.00623866
0.00623864
0.00623864
0.00623865
0.00574224
0.00574223
0.00574223
0.00574225
0.00574228
0.00574231
0.00574235
0.0057424
0.00574244
0.00574248
0.00574252
0.00574255
0.00574257
0.00574259
0.0057426
0.0057426
0.00574259
0.00574257
0.00574255
0.00574252
0.00574248
0.00574244
0.0057424
0.00574235
0.00574231
0.00574228
0.00574225
0.00574223
0.00574223
0.00574224
0.00531897
0.00531896
0.00531896
0.00531898
0.005319
0.00531903
0.00531907
0.0053191
0.00531914
0.00531917
0.0053192
0.00531923
0.00531925
0.00531927
0.00531927
0.00531927
0.00531927
0.00531925
0.00531923
0.0053192
0.00531917
0.00531914
0.0053191
0.00531906
0.00531903
0.005319
0.00531897
0.00531896
0.00531896
0.00531897
0.00495378
0.00495377
0.00495377
0.00495378
0.0049538
0.00495383
0.00495386
0.00495389
0.00495392
0.00495395
0.00495397
0.004954
0.00495402
0.00495403
0.00495403
0.00495403
0.00495403
0.00495401
0.004954
0.00495397
0.00495395
0.00495392
0.00495389
0.00495386
0.00495383
0.0049538
0.00495378
0.00495377
0.00495377
0.00495378
0.00463548
0.00463547
0.00463546
0.00463547
0.00463549
0.00463551
0.00463554
0.00463556
0.00463559
0.00463561
0.00463564
0.00463566
0.00463567
0.00463568
0.00463569
0.00463569
0.00463568
0.00463567
0.00463565
0.00463564
0.00463561
0.00463559
0.00463556
0.00463554
0.00463551
0.00463549
0.00463547
0.00463546
0.00463546
0.00463547
0.00435557
0.00435556
0.00435555
0.00435556
0.00435558
0.00435559
0.00435562
0.00435564
0.00435566
0.00435568
0.0043557
0.00435572
0.00435573
0.00435574
0.00435574
0.00435574
0.00435574
0.00435573
0.00435572
0.0043557
0.00435568
0.00435566
0.00435564
0.00435561
0.00435559
0.00435557
0.00435556
0.00435555
0.00435555
0.00435556
0.00410749
0.00410748
0.00410748
0.00410749
0.0041075
0.00410752
0.00410754
0.00410756
0.00410758
0.00410759
0.00410761
0.00410762
0.00410763
0.00410764
0.00410764
0.00410764
0.00410764
0.00410763
0.00410762
0.00410761
0.00410759
0.00410757
0.00410755
0.00410754
0.00410752
0.0041075
0.00410748
0.00410748
0.00410748
0.00410749
0.00388611
0.00388611
0.0038861
0.00388611
0.00388612
0.00388614
0.00388615
0.00388617
0.00388619
0.0038862
0.00388622
0.00388623
0.00388623
0.00388624
0.00388624
0.00388624
0.00388624
0.00388623
0.00388623
0.00388621
0.0038862
0.00388619
0.00388617
0.00388615
0.00388614
0.00388612
0.00388611
0.0038861
0.0038861
0.00388611
0.00368734
0.00368733
0.00368733
0.00368733
0.00368735
0.00368736
0.00368737
0.00368739
0.0036874
0.00368742
0.00368743
0.00368744
0.00368744
0.00368745
0.00368745
0.00368745
0.00368745
0.00368744
0.00368744
0.00368743
0.00368741
0.0036874
0.00368739
0.00368737
0.00368736
0.00368734
0.00368733
0.00368733
0.00368733
0.00368733
0.00350786
0.00350786
0.00350786
0.00350786
0.00350788
0.00350789
0.0035079
0.00350791
0.00350793
0.00350794
0.00350795
0.00350795
0.00350796
0.00350796
0.00350797
0.00350797
0.00350796
0.00350796
0.00350795
0.00350795
0.00350794
0.00350793
0.00350791
0.0035079
0.00350789
0.00350787
0.00350786
0.00350785
0.00350786
0.00350786
0.00334501
0.00334501
0.00334501
0.00334502
0.00334503
0.00334504
0.00334505
0.00334507
0.00334508
0.00334509
0.00334509
0.0033451
0.0033451
0.00334511
0.00334511
0.00334511
0.00334511
0.0033451
0.0033451
0.00334509
0.00334508
0.00334508
0.00334506
0.00334505
0.00334504
0.00334503
0.00334502
0.00334501
0.00334501
0.00334501
0.00319659
0.00319659
0.00319659
0.0031966
0.00319661
0.00319662
0.00319663
0.00319664
0.00319665
0.00319666
0.00319667
0.00319667
0.00319668
0.00319668
0.00319668
0.00319668
0.00319668
0.00319668
0.00319667
0.00319667
0.00319666
0.00319665
0.00319664
0.00319663
0.00319662
0.00319661
0.00319659
0.00319659
0.00319658
0.00319658
0.00306078
0.00306078
0.00306079
0.00306079
0.00306081
0.00306082
0.00306083
0.00306084
0.00306085
0.00306085
0.00306086
0.00306086
0.00306087
0.00306087
0.00306087
0.00306087
0.00306087
0.00306087
0.00306086
0.00306086
0.00306085
0.00306085
0.00306084
0.00306083
0.00306082
0.0030608
0.00306079
0.00306078
0.00306078
0.00306078
0.00293613
0.00293614
0.00293614
0.00293615
0.00293617
0.00293618
0.00293619
0.0029362
0.0029362
0.00293621
0.00293621
0.00293622
0.00293622
0.00293622
0.00293622
0.00293622
0.00293622
0.00293622
0.00293622
0.00293621
0.00293621
0.0029362
0.0029362
0.00293619
0.00293618
0.00293616
0.00293615
0.00293614
0.00293614
0.00293613
0.00282156
0.00282157
0.00282157
0.00282158
0.00282159
0.00282161
0.00282162
0.00282162
0.00282163
0.00282163
0.00282164
0.00282164
0.00282164
0.00282164
0.00282165
0.00282165
0.00282164
0.00282164
0.00282164
0.00282164
0.00282163
0.00282163
0.00282162
0.00282161
0.0028216
0.00282159
0.00282158
0.00282157
0.00282156
0.00282156
0.00271651
0.00271652
0.00271653
0.00271654
0.00271655
0.00271656
0.00271657
0.00271657
0.00271658
0.00271658
0.00271659
0.00271659
0.00271659
0.00271659
0.00271659
0.00271659
0.00271659
0.00271659
0.00271659
0.00271658
0.00271658
0.00271658
0.00271657
0.00271656
0.00271656
0.00271655
0.00271654
0.00271653
0.00271652
0.00271651
0.00262161
0.00262162
0.00262163
0.00262164
0.00262164
0.00262165
0.00262166
0.00262166
0.00262167
0.00262167
0.00262167
0.00262167
0.00262167
0.00262168
0.00262168
0.00262168
0.00262168
0.00262167
0.00262167
0.00262167
0.00262167
0.00262167
0.00262166
0.00262166
0.00262165
0.00262164
0.00262163
0.00262163
0.00262162
0.00262161
0.00254055
0.00254055
0.00254056
0.00254056
0.00254057
0.00254057
0.00254058
0.00254058
0.00254058
0.00254058
0.00254058
0.00254059
0.00254059
0.00254059
0.00254059
0.00254059
0.00254059
0.00254059
0.00254058
0.00254058
0.00254058
0.00254058
0.00254058
0.00254058
0.00254057
0.00254057
0.00254056
0.00254056
0.00254055
0.00254055
0.00248542
0.00248542
0.00248542
0.00248543
0.00248543
0.00248543
0.00248543
0.00248544
0.00248544
0.00248544
0.00248544
0.00248544
0.00248544
0.00248544
0.00248544
0.00248544
0.00248544
0.00248544
0.00248544
0.00248544
0.00248544
0.00248544
0.00248543
0.00248543
0.00248543
0.00248543
0.00248543
0.00248542
0.00248542
0.00248542
0.0825722
0.0825733
0.0825734
0.0825731
0.0825725
0.0825717
0.0825707
0.0825697
0.0825687
0.0825677
0.0825667
0.0825658
0.0825652
0.0825648
0.0825646
0.0825646
0.0825648
0.0825653
0.0825659
0.0825668
0.0825677
0.0825687
0.0825698
0.0825708
0.0825717
0.0825725
0.0825731
0.0825735
0.0825734
0.0825723
0.0460612
0.0460605
0.0460606
0.0460609
0.0460614
0.0460619
0.0460624
0.046063
0.0460636
0.0460642
0.0460647
0.0460651
0.0460655
0.0460658
0.0460659
0.0460659
0.0460658
0.0460655
0.0460651
0.0460647
0.0460642
0.0460636
0.046063
0.0460624
0.0460618
0.0460613
0.0460609
0.0460605
0.0460605
0.0460612
0.0284105
0.0284102
0.0284102
0.0284104
0.0284107
0.0284111
0.0284115
0.0284119
0.0284123
0.0284127
0.0284131
0.0284134
0.0284136
0.0284138
0.0284139
0.0284139
0.0284138
0.0284136
0.0284134
0.0284131
0.0284127
0.0284123
0.0284119
0.0284115
0.0284111
0.0284107
0.0284104
0.0284102
0.0284102
0.0284104
0.0203091
0.020309
0.0203091
0.0203092
0.0203094
0.0203097
0.02031
0.0203103
0.0203106
0.0203109
0.0203112
0.0203114
0.0203116
0.0203118
0.0203118
0.0203118
0.0203118
0.0203116
0.0203114
0.0203112
0.0203109
0.0203106
0.0203103
0.02031
0.0203097
0.0203094
0.0203092
0.0203091
0.020309
0.0203091
0.0158109
0.0158109
0.015811
0.0158111
0.0158113
0.0158115
0.0158118
0.015812
0.0158123
0.0158125
0.0158127
0.0158129
0.0158131
0.0158132
0.0158133
0.0158132
0.0158132
0.0158131
0.0158129
0.0158127
0.0158125
0.0158123
0.015812
0.0158118
0.0158115
0.0158113
0.0158111
0.015811
0.0158109
0.0158109
0.0129568
0.0129567
0.0129568
0.0129569
0.012957
0.0129572
0.0129574
0.0129576
0.0129578
0.0129581
0.0129582
0.0129584
0.0129585
0.0129586
0.0129587
0.0129587
0.0129586
0.0129585
0.0129584
0.0129582
0.012958
0.0129578
0.0129576
0.0129574
0.0129572
0.012957
0.0129569
0.0129568
0.0129567
0.0129567
0.0109804
0.0109804
0.0109804
0.0109805
0.0109807
0.0109808
0.010981
0.0109812
0.0109814
0.0109815
0.0109817
0.0109818
0.0109819
0.010982
0.0109821
0.0109821
0.010982
0.0109819
0.0109818
0.0109817
0.0109815
0.0109813
0.0109812
0.010981
0.0109808
0.0109807
0.0109805
0.0109804
0.0109804
0.0109804
0.00952909
0.00952908
0.00952911
0.00952919
0.0095293
0.00952943
0.00952958
0.00952973
0.00952989
0.00953004
0.00953018
0.0095303
0.0095304
0.00953046
0.0095305
0.0095305
0.00953046
0.0095304
0.0095303
0.00953018
0.00953004
0.00952988
0.00952973
0.00952957
0.00952942
0.00952929
0.00952918
0.00952911
0.00952907
0.00952908
0.00841735
0.00841734
0.00841737
0.00841743
0.00841752
0.00841764
0.00841776
0.0084179
0.00841803
0.00841816
0.00841828
0.00841839
0.00841847
0.00841853
0.00841856
0.00841856
0.00841853
0.00841847
0.00841838
0.00841828
0.00841816
0.00841803
0.00841789
0.00841776
0.00841763
0.00841752
0.00841742
0.00841736
0.00841733
0.00841734
0.00753819
0.00753818
0.0075382
0.00753825
0.00753833
0.00753843
0.00753854
0.00753865
0.00753877
0.00753888
0.00753899
0.00753907
0.00753914
0.00753919
0.00753922
0.00753922
0.00753919
0.00753914
0.00753907
0.00753898
0.00753888
0.00753877
0.00753865
0.00753853
0.00753842
0.00753833
0.00753825
0.00753819
0.00753817
0.00753818
0.00682541
0.00682539
0.00682541
0.00682545
0.00682552
0.0068256
0.0068257
0.00682579
0.0068259
0.00682599
0.00682608
0.00682615
0.00682621
0.00682626
0.00682628
0.00682628
0.00682626
0.00682621
0.00682615
0.00682608
0.00682599
0.00682589
0.00682579
0.00682569
0.0068256
0.00682551
0.00682544
0.0068254
0.00682539
0.0068254
0.00623579
0.00623577
0.00623578
0.00623581
0.00623587
0.00623594
0.00623602
0.00623611
0.00623619
0.00623628
0.00623635
0.00623641
0.00623647
0.0062365
0.00623652
0.00623652
0.0062365
0.00623646
0.00623641
0.00623635
0.00623627
0.00623619
0.0062361
0.00623602
0.00623594
0.00623587
0.00623581
0.00623577
0.00623576
0.00623578
0.00573991
0.00573989
0.0057399
0.00573992
0.00573997
0.00574003
0.0057401
0.00574018
0.00574025
0.00574032
0.00574038
0.00574044
0.00574048
0.00574051
0.00574052
0.00574052
0.00574051
0.00574048
0.00574043
0.00574038
0.00574032
0.00574025
0.00574017
0.0057401
0.00574003
0.00573997
0.00573992
0.00573989
0.00573989
0.0057399
0.00531704
0.00531703
0.00531703
0.00531705
0.00531709
0.00531714
0.0053172
0.00531727
0.00531733
0.00531739
0.00531744
0.00531749
0.00531752
0.00531755
0.00531756
0.00531756
0.00531755
0.00531752
0.00531748
0.00531744
0.00531738
0.00531733
0.00531726
0.0053172
0.00531714
0.00531709
0.00531705
0.00531702
0.00531702
0.00531704
0.00495216
0.00495214
0.00495214
0.00495216
0.0049522
0.00495224
0.00495229
0.00495234
0.0049524
0.00495245
0.00495249
0.00495253
0.00495256
0.00495258
0.00495259
0.00495259
0.00495258
0.00495256
0.00495253
0.00495249
0.00495244
0.00495239
0.00495234
0.00495229
0.00495224
0.00495219
0.00495216
0.00495214
0.00495214
0.00495215
0.00463408
0.00463407
0.00463407
0.00463408
0.00463411
0.00463415
0.0046342
0.00463424
0.00463429
0.00463433
0.00463436
0.0046344
0.00463442
0.00463444
0.00463445
0.00463445
0.00463444
0.00463442
0.0046344
0.00463436
0.00463432
0.00463428
0.00463424
0.00463419
0.00463415
0.00463411
0.00463408
0.00463406
0.00463406
0.00463408
0.00435434
0.00435433
0.00435433
0.00435434
0.00435437
0.0043544
0.00435444
0.00435448
0.00435452
0.00435455
0.00435459
0.00435461
0.00435463
0.00435465
0.00435465
0.00435465
0.00435465
0.00435463
0.00435461
0.00435458
0.00435455
0.00435452
0.00435448
0.00435444
0.0043544
0.00435436
0.00435434
0.00435432
0.00435432
0.00435434
0.0041064
0.00410638
0.00410638
0.0041064
0.00410642
0.00410645
0.00410649
0.00410652
0.00410655
0.00410658
0.00410661
0.00410663
0.00410665
0.00410666
0.00410667
0.00410667
0.00410666
0.00410665
0.00410663
0.00410661
0.00410658
0.00410655
0.00410652
0.00410648
0.00410645
0.00410642
0.00410639
0.00410638
0.00410638
0.00410639
0.00388511
0.0038851
0.0038851
0.00388511
0.00388513
0.00388516
0.00388519
0.00388522
0.00388525
0.00388528
0.0038853
0.00388532
0.00388533
0.00388534
0.00388535
0.00388534
0.00388534
0.00388533
0.00388532
0.0038853
0.00388527
0.00388525
0.00388522
0.00388519
0.00388516
0.00388513
0.00388511
0.00388509
0.00388509
0.0038851
0.00368639
0.00368639
0.00368639
0.0036864
0.00368642
0.00368645
0.00368648
0.00368651
0.00368653
0.00368655
0.00368657
0.00368659
0.0036866
0.00368661
0.00368661
0.00368661
0.0036866
0.0036866
0.00368658
0.00368657
0.00368655
0.00368653
0.0036865
0.00368648
0.00368645
0.00368642
0.0036864
0.00368638
0.00368638
0.00368639
0.00350696
0.00350696
0.00350697
0.00350698
0.00350701
0.00350703
0.00350706
0.00350708
0.0035071
0.00350712
0.00350714
0.00350715
0.00350716
0.00350717
0.00350717
0.00350717
0.00350717
0.00350716
0.00350715
0.00350714
0.00350712
0.0035071
0.00350708
0.00350705
0.00350703
0.003507
0.00350698
0.00350696
0.00350696
0.00350696
0.00334416
0.00334416
0.00334417
0.00334418
0.00334421
0.00334423
0.00334426
0.00334428
0.0033443
0.00334431
0.00334433
0.00334434
0.00334435
0.00334435
0.00334435
0.00334435
0.00334435
0.00334435
0.00334434
0.00334433
0.00334431
0.0033443
0.00334428
0.00334425
0.00334423
0.0033442
0.00334418
0.00334416
0.00334415
0.00334415
0.00319579
0.00319579
0.0031958
0.00319582
0.00319585
0.00319587
0.0031959
0.00319592
0.00319593
0.00319595
0.00319596
0.00319597
0.00319598
0.00319598
0.00319598
0.00319598
0.00319598
0.00319598
0.00319597
0.00319596
0.00319595
0.00319593
0.00319592
0.00319589
0.00319587
0.00319584
0.00319582
0.0031958
0.00319579
0.00319578
0.00306009
0.0030601
0.00306011
0.00306014
0.00306016
0.00306019
0.00306021
0.00306023
0.00306024
0.00306026
0.00306027
0.00306027
0.00306028
0.00306028
0.00306029
0.00306029
0.00306028
0.00306028
0.00306027
0.00306027
0.00306026
0.00306024
0.00306023
0.00306021
0.00306018
0.00306016
0.00306013
0.00306011
0.00306009
0.00306009
0.00293569
0.0029357
0.00293572
0.00293575
0.00293577
0.0029358
0.00293582
0.00293584
0.00293585
0.00293586
0.00293587
0.00293588
0.00293588
0.00293588
0.00293588
0.00293588
0.00293588
0.00293588
0.00293588
0.00293587
0.00293586
0.00293585
0.00293583
0.00293582
0.00293579
0.00293577
0.00293574
0.00293572
0.0029357
0.00293569
0.00282169
0.0028217
0.00282172
0.00282175
0.00282177
0.0028218
0.00282182
0.00282183
0.00282185
0.00282186
0.00282186
0.00282187
0.00282187
0.00282187
0.00282187
0.00282187
0.00282187
0.00282187
0.00282187
0.00282186
0.00282185
0.00282184
0.00282183
0.00282182
0.0028218
0.00282177
0.00282175
0.00282172
0.0028217
0.00282169
0.00271796
0.00271798
0.002718
0.00271802
0.00271805
0.00271807
0.00271809
0.0027181
0.00271811
0.00271812
0.00271812
0.00271813
0.00271813
0.00271813
0.00271813
0.00271813
0.00271813
0.00271813
0.00271813
0.00271812
0.00271812
0.00271811
0.0027181
0.00271808
0.00271807
0.00271805
0.00271802
0.002718
0.00271798
0.00271796
0.002626
0.00262602
0.00262604
0.00262606
0.00262608
0.00262609
0.00262611
0.00262612
0.00262612
0.00262613
0.00262613
0.00262614
0.00262614
0.00262614
0.00262614
0.00262614
0.00262614
0.00262614
0.00262614
0.00262613
0.00262613
0.00262612
0.00262611
0.0026261
0.00262609
0.00262607
0.00262605
0.00262603
0.00262602
0.002626
0.00255078
0.00255079
0.0025508
0.00255082
0.00255083
0.00255084
0.00255085
0.00255086
0.00255086
0.00255086
0.00255087
0.00255087
0.00255087
0.00255087
0.00255087
0.00255087
0.00255087
0.00255087
0.00255087
0.00255087
0.00255086
0.00255086
0.00255085
0.00255085
0.00255084
0.00255083
0.00255082
0.0025508
0.00255079
0.00255078
0.00250395
0.00250396
0.00250397
0.00250398
0.00250398
0.00250399
0.00250399
0.002504
0.002504
0.002504
0.002504
0.002504
0.002504
0.002504
0.002504
0.002504
0.002504
0.002504
0.002504
0.002504
0.002504
0.002504
0.002504
0.00250399
0.00250399
0.00250398
0.00250398
0.00250397
0.00250396
0.00250395
0.0726669
0.072667
0.0726669
0.0726662
0.0726651
0.0726636
0.0726619
0.0726601
0.0726583
0.0726565
0.0726548
0.0726533
0.0726522
0.0726514
0.0726511
0.0726511
0.0726515
0.0726522
0.0726534
0.0726549
0.0726566
0.0726584
0.0726602
0.072662
0.0726637
0.0726651
0.0726663
0.072667
0.0726671
0.072667
0.0449693
0.0449685
0.0449687
0.0449693
0.04497