/*--------------------------------*- C++ -*----------------------------------*\
| =========                 |                                                 |
| \\      /  F ield         | OpenFOAM: The Open Source CFD Toolbox           |
|  \\    /   O peration     | Version:  2506                                  |
|   \\  /    A nd           | Website:  www.openfoam.com                      |
|    \\/     M anipulation  |                                                 |
\*---------------------------------------------------------------------------*/
FoamFile
{
    version     2.0;
    format      ascii;
    arch        "LSB;label=32;scalar=64";
    class       volScalarField;
    location    "50";
    object      p;
}
// * * * * * * * * * * * * * * * * * * * * * * * * * * * * * * * * * * * * * //

dimensions      [0 2 -2 0 0 0 0];

internalField   nonuniform List<scalar> 
144676
(
-0.0255153
-0.025236
-0.0248138
-0.0242243
-0.0234877
-0.0226307
-0.0216877
-0.0206983
-0.0197047
-0.0187502
-0.0178773
-0.0171255
-0.0165297
-0.0161177
-0.0159085
-0.0159115
-0.0161261
-0.0165424
-0.0171414
-0.0178961
-0.0187721
-0.0197299
-0.0207268
-0.0217191
-0.0226639
-0.0235217
-0.0242586
-0.0248481
-0.0252702
-0.0255491
-0.0093737
-0.00893113
-0.00849287
-0.00790017
-0.00716406
-0.00630875
-0.00536806
-0.0043811
-0.00339
-0.00243791
-0.00156718
-0.000817424
-0.000223438
0.000187144
0.000395565
0.000392687
0.000178898
-0.000236154
-0.000833753
-0.00158664
-0.00246048
-0.00341587
-0.00441027
-0.00539984
-0.00634195
-0.00719774
-0.00793392
-0.00852649
-0.00896452
-0.00940701
0.028264
0.0284618
0.028858
0.0294322
0.0301559
0.0310001
0.0319296
0.0329051
0.0338847
0.0348256
0.035686
0.0364269
0.0370139
0.0374198
0.0376261
0.0376235
0.0374123
0.037002
0.0364113
0.0356671
0.0348033
0.0338588
0.0328756
0.0318976
0.0309669
0.0301225
0.0293991
0.0288255
0.0284298
0.0282321
0.0556084
0.0559178
0.0563212
0.0568869
0.0575967
0.0584238
0.0593342
0.0602896
0.0612487
0.0621698
0.0630121
0.0637373
0.0643121
0.0647098
0.0649121
0.0649098
0.064703
0.0643012
0.0637227
0.0629939
0.0621479
0.0612226
0.0602597
0.0593019
0.0583905
0.0575636
0.0568544
0.0562895
0.0558867
0.0555773
0.0783177
0.0785873
0.0789716
0.0795175
0.0802045
0.0810059
0.0818884
0.0828145
0.0837442
0.0846369
0.0854531
0.0861559
0.0867131
0.0870988
0.0872952
0.0872931
0.0870928
0.0867033
0.0861427
0.0854362
0.0846158
0.0837186
0.082785
0.0818565
0.080973
0.0801718
0.0794853
0.0789399
0.0785561
0.0782868
0.097055
0.0973048
0.0976723
0.0981953
0.0988539
0.0996225
0.100469
0.101358
0.10225
0.103106
0.103889
0.104564
0.105098
0.105469
0.105657
0.105655
0.105463
0.10509
0.104552
0.103875
0.103087
0.102226
0.10133
0.100439
0.0995914
0.0988226
0.0981639
0.097641
0.0972739
0.0970248
0.112756
0.112983
0.113329
0.113825
0.114449
0.115179
0.115983
0.116827
0.117674
0.118487
0.119231
0.119871
0.120379
0.120731
0.120911
0.120909
0.120727
0.120373
0.119863
0.119219
0.118472
0.117654
0.116803
0.115956
0.115151
0.114421
0.113796
0.1133
0.112954
0.112727
0.126029
0.126234
0.126558
0.127023
0.127609
0.128295
0.129051
0.129844
0.130641
0.131406
0.132105
0.132707
0.133185
0.133516
0.133685
0.133684
0.133513
0.13318
0.1327
0.132096
0.131393
0.130625
0.129825
0.129029
0.128272
0.127586
0.126999
0.126533
0.126209
0.126003
0.137356
0.137541
0.137841
0.138273
0.138819
0.139457
0.14016
0.140899
0.14164
0.142352
0.143003
0.143564
0.144009
0.144317
0.144474
0.144473
0.144314
0.144004
0.143558
0.142995
0.142342
0.141628
0.140883
0.140142
0.139438
0.1388
0.138253
0.137821
0.13752
0.137334
0.147109
0.147275
0.147551
0.147949
0.148452
0.14904
0.149689
0.150369
0.151053
0.151709
0.152309
0.152826
0.153237
0.153521
0.153665
0.153663
0.153516
0.15323
0.152819
0.152301
0.1517
0.151041
0.150355
0.149673
0.149024
0.148436
0.147934
0.147536
0.147259
0.147091
0.155588
0.155737
0.155988
0.156351
0.156811
0.157348
0.15794
0.158562
0.159186
0.159785
0.160333
0.160806
0.161181
0.16144
0.16157
0.161568
0.161433
0.161172
0.160796
0.160324
0.159775
0.159174
0.158548
0.157925
0.157334
0.156798
0.15634
0.155977
0.155725
0.155574
0.163041
0.163173
0.1634
0.163728
0.164144
0.164631
0.165166
0.165729
0.166294
0.166836
0.167332
0.16776
0.168099
0.168333
0.16845
0.168448
0.168325
0.168089
0.167749
0.167321
0.166825
0.166281
0.165716
0.165153
0.164619
0.164135
0.163721
0.163393
0.163165
0.163031
0.169678
0.169793
0.169997
0.170291
0.170664
0.171101
0.171582
0.172086
0.172593
0.173079
0.173525
0.173908
0.174212
0.174421
0.174526
0.174524
0.174414
0.174201
0.173896
0.173513
0.173068
0.172581
0.172074
0.171571
0.171091
0.170657
0.170286
0.169993
0.16979
0.169672
0.175681
0.175782
0.175962
0.176224
0.176556
0.176944
0.177371
0.17782
0.178271
0.178703
0.179099
0.17944
0.17971
0.179896
0.179989
0.179987
0.179889
0.1797
0.179429
0.179087
0.178692
0.17826
0.17781
0.177361
0.176935
0.176549
0.17622
0.17596
0.175781
0.17568
0.181215
0.181302
0.181459
0.18169
0.181982
0.182324
0.182701
0.183096
0.183493
0.183875
0.184223
0.184524
0.184761
0.184925
0.185007
0.185005
0.184919
0.184752
0.184512
0.184211
0.183863
0.183482
0.183085
0.182689
0.182313
0.181973
0.181685
0.181458
0.181302
0.181215
0.186428
0.186502
0.186639
0.186839
0.187094
0.187392
0.18772
0.188065
0.188412
0.188745
0.189049
0.189312
0.189519
0.189662
0.189734
0.189732
0.189655
0.189509
0.189299
0.189036
0.188732
0.188398
0.188052
0.187706
0.187377
0.187082
0.186831
0.186634
0.1865
0.186427
0.191463
0.191525
0.191642
0.191813
0.192032
0.192288
0.192571
0.192869
0.193169
0.193456
0.193719
0.193946
0.194126
0.19425
0.194313
0.19431
0.194244
0.194117
0.193935
0.193707
0.193442
0.193154
0.192854
0.192556
0.192273
0.192018
0.191803
0.191633
0.191518
0.191458
0.196457
0.196507
0.196604
0.196749
0.196934
0.197151
0.197392
0.197646
0.197902
0.198147
0.198372
0.198567
0.198723
0.19883
0.198884
0.198882
0.198825
0.198716
0.198559
0.198362
0.198135
0.197888
0.197633
0.197379
0.197138
0.196921
0.196737
0.196592
0.196495
0.196447
0.201549
0.201587
0.201666
0.201786
0.20194
0.202121
0.202323
0.202537
0.202752
0.202959
0.20315
0.203316
0.203449
0.203542
0.203588
0.203587
0.203539
0.203445
0.203311
0.203144
0.202951
0.202742
0.202527
0.202314
0.202112
0.201929
0.201773
0.201652
0.201571
0.201534
0.206889
0.206915
0.206978
0.207075
0.207201
0.20735
0.207516
0.207692
0.20787
0.208042
0.208202
0.208342
0.208455
0.208533
0.208573
0.208572
0.208532
0.208454
0.208342
0.208201
0.208041
0.207867
0.207688
0.207512
0.207344
0.207193
0.207064
0.206964
0.206899
0.206874
0.212649
0.212663
0.212712
0.212788
0.212888
0.213008
0.213141
0.213283
0.213427
0.213568
0.213699
0.213815
0.213908
0.213973
0.214006
0.214007
0.213976
0.213912
0.21382
0.213705
0.213573
0.213431
0.213285
0.21314
0.213004
0.212881
0.212778
0.2127
0.212651
0.212638
0.219038
0.21904
0.219076
0.219133
0.21921
0.219302
0.219405
0.219516
0.21963
0.219742
0.219847
0.21994
0.220015
0.220068
0.220097
0.220099
0.220075
0.220025
0.219951
0.219859
0.219752
0.219638
0.21952
0.219405
0.219297
0.219202
0.219125
0.219068
0.219034
0.219033
0.226327
0.226315
0.226338
0.226378
0.226432
0.226498
0.226574
0.226658
0.226744
0.226831
0.226912
0.226985
0.227045
0.227087
0.227111
0.227113
0.227095
0.227056
0.226999
0.226926
0.226843
0.226754
0.226663
0.226574
0.226492
0.226423
0.22637
0.226333
0.226314
0.226326
0.234883
0.234855
0.234864
0.234885
0.234918
0.234962
0.235014
0.235073
0.235136
0.235199
0.235261
0.235316
0.235362
0.235395
0.235413
0.235414
0.2354
0.235371
0.235327
0.235273
0.23521
0.235144
0.235078
0.235014
0.234957
0.234912
0.234881
0.234862
0.234857
0.234886
0.24523
0.24518
0.245175
0.245179
0.245193
0.245216
0.245247
0.245284
0.245326
0.24537
0.245414
0.245453
0.245486
0.24551
0.245523
0.245524
0.245514
0.245492
0.245461
0.245422
0.245378
0.245333
0.245288
0.245247
0.245214
0.245191
0.24518
0.245179
0.245187
0.245238
0.258135
0.258056
0.258038
0.258027
0.258023
0.258027
0.258038
0.258056
0.25808
0.258107
0.258135
0.258161
0.258184
0.2582
0.258209
0.258209
0.2582
0.258186
0.258165
0.258139
0.258111
0.258083
0.258058
0.258038
0.258026
0.258024
0.258031
0.258047
0.258069
0.258149
0.274701
0.274579
0.274544
0.274517
0.274496
0.274483
0.274477
0.274479
0.274488
0.274501
0.274516
0.274531
0.274544
0.274554
0.274558
0.274557
0.274551
0.274542
0.274529
0.274514
0.274499
0.274486
0.274477
0.274476
0.274483
0.274499
0.274525
0.274557
0.274595
0.274719
0.296474
0.296355
0.296306
0.296262
0.296225
0.296197
0.296177
0.296166
0.296162
0.296163
0.296168
0.296173
0.296179
0.296183
0.296185
0.296183
0.29618
0.296175
0.296168
0.296162
0.296156
0.296154
0.296159
0.296173
0.296197
0.29623
0.29627
0.296318
0.296372
0.296494
0.327676
0.327751
0.327725
0.327673
0.327625
0.327586
0.327555
0.327534
0.32752
0.327513
0.327509
0.327508
0.327509
0.327511
0.327511
0.327511
0.327508
0.327505
0.327503
0.327501
0.327502
0.327508
0.327523
0.327549
0.327585
0.32763
0.327682
0.327739
0.327767
0.327696
0.371422
0.370788
0.370688
0.370604
0.370537
0.370485
0.370447
0.370419
0.370399
0.370386
0.370378
0.370375
0.370374
0.370373
0.370373
0.370373
0.370371
0.37037
0.370369
0.370369
0.370372
0.370383
0.370404
0.370438
0.370484
0.370543
0.370615
0.370704
0.370807
0.371444
-0.0108687
-0.0106017
-0.0101911
-0.00958693
-0.00882459
-0.00793407
-0.00695296
-0.00592263
-0.00488721
-0.00389186
-0.00298095
-0.00219604
-0.00157362
-0.00114281
-0.000923616
-0.000926222
-0.00115036
-0.00158547
-0.00221145
-0.00299941
-0.00391332
-0.00491205
-0.00595115
-0.00698473
-0.0079679
-0.0088592
-0.00962139
-0.0102249
-0.010635
-0.0109019
0.00739893
0.00767038
0.00807726
0.00868541
0.00944868
0.0103389
0.0113191
0.0123484
0.0133827
0.0143769
0.0152867
0.0160705
0.0166919
0.017122
0.0173409
0.0173385
0.0171148
0.0166803
0.0160551
0.0152681
0.0143553
0.0133576
0.0123195
0.0112871
0.0103048
0.00941391
0.00865095
0.00804375
0.00763775
0.00736663
0.0401501
0.0402389
0.0406227
0.041211
0.0419611
0.0428399
0.043809
0.0448268
0.0458497
0.0468328
0.0477324
0.0485074
0.0491221
0.0495477
0.0497644
0.0497621
0.0495409
0.049111
0.0484927
0.0477144
0.0468115
0.0458245
0.0447978
0.0437767
0.0428058
0.0419265
0.0411769
0.0405898
0.0402071
0.0401189
0.0630775
0.0633021
0.0636966
0.0642795
0.0650166
0.0658779
0.0668272
0.0678241
0.0688256
0.0697881
0.0706687
0.0714276
0.0720296
0.0724466
0.0726591
0.0726569
0.0724402
0.0720191
0.0714135
0.0706513
0.069767
0.0688003
0.0677947
0.0667948
0.0658437
0.064982
0.0642455
0.0636637
0.0632704
0.0630464
0.0837105
0.0838854
0.0842594
0.0848206
0.085533
0.0863668
0.0872863
0.0882521
0.0892224
0.0901548
0.0910078
0.091743
0.0923264
0.0927307
0.0929367
0.0929347
0.0927248
0.092317
0.0917304
0.0909918
0.0901348
0.0891979
0.0882234
0.0872544
0.0863332
0.0854987
0.0847865
0.0842261
0.083853
0.083679
0.100977
0.101158
0.101521
0.102059
0.102742
0.103541
0.104422
0.105348
0.106278
0.107172
0.10799
0.108695
0.109254
0.109642
0.10984
0.109838
0.109637
0.109247
0.108685
0.107977
0.107155
0.106256
0.105322
0.104393
0.103509
0.102709
0.102026
0.101488
0.101126
0.100946
0.115696
0.115867
0.116211
0.116721
0.117368
0.118125
0.118961
0.11984
0.120722
0.12157
0.122346
0.123014
0.123545
0.123914
0.124102
0.1241
0.123911
0.123541
0.123008
0.122336
0.121556
0.120704
0.119817
0.118936
0.118098
0.117339
0.116691
0.116181
0.115837
0.115666
0.12827
0.128432
0.128755
0.129233
0.12984
0.130551
0.131336
0.13216
0.132988
0.133784
0.134513
0.135141
0.13564
0.135985
0.136162
0.136161
0.135984
0.135637
0.135136
0.134506
0.133775
0.132975
0.132142
0.131315
0.130528
0.129816
0.129207
0.128728
0.128404
0.128242
0.139087
0.139237
0.139538
0.139982
0.140546
0.141206
0.141935
0.142702
0.143471
0.144211
0.144888
0.145472
0.145936
0.146257
0.146421
0.14642
0.146255
0.145932
0.145467
0.144882
0.144203
0.14346
0.142687
0.141918
0.141187
0.140525
0.13996
0.139515
0.139214
0.139063
0.148455
0.148593
0.14887
0.149279
0.149798
0.150406
0.151077
0.151782
0.15249
0.153171
0.153794
0.154331
0.154758
0.155053
0.155203
0.155202
0.155049
0.154752
0.154325
0.153787
0.153163
0.152479
0.151768
0.151061
0.150389
0.14978
0.149261
0.148852
0.148575
0.148436
0.156635
0.156761
0.157014
0.157386
0.157859
0.158414
0.159025
0.159668
0.160314
0.160934
0.161503
0.161992
0.162381
0.16265
0.162786
0.162784
0.162644
0.162372
0.161983
0.161493
0.160925
0.160302
0.159655
0.159011
0.158399
0.157846
0.157373
0.157001
0.156747
0.156621
0.163849
0.163962
0.164191
0.164527
0.164955
0.165456
0.166009
0.166589
0.167173
0.167734
0.168247
0.168689
0.16904
0.169282
0.169405
0.169402
0.169275
0.169029
0.168677
0.168235
0.167722
0.167161
0.166577
0.165996
0.165445
0.164946
0.164519
0.164182
0.163953
0.16384
0.170291
0.170391
0.170596
0.170897
0.17128
0.171729
0.172224
0.172744
0.173267
0.173769
0.174229
0.174625
0.174939
0.175155
0.175265
0.175262
0.175148
0.174927
0.174612
0.174216
0.173758
0.173256
0.172734
0.172214
0.171721
0.171274
0.170893
0.170592
0.170387
0.170286
0.176131
0.176219
0.1764
0.176668
0.177008
0.177407
0.177846
0.178308
0.178773
0.179218
0.179626
0.179978
0.180256
0.180448
0.180545
0.180542
0.180441
0.180245
0.179965
0.179613
0.179206
0.178762
0.178299
0.177837
0.177399
0.177003
0.176665
0.176399
0.176219
0.17613
0.181524
0.181601
0.18176
0.181995
0.182294
0.182645
0.183032
0.183439
0.183847
0.18424
0.184598
0.184907
0.185152
0.18532
0.185405
0.185403
0.185313
0.18514
0.184893
0.184584
0.184226
0.183835
0.183427
0.18302
0.182635
0.182287
0.181991
0.181759
0.181602
0.181524
0.186613
0.18668
0.186817
0.187022
0.187282
0.187588
0.187925
0.188279
0.188636
0.188977
0.189289
0.189558
0.189772
0.189919
0.189993
0.18999
0.189911
0.18976
0.189544
0.189274
0.188962
0.18862
0.188265
0.18791
0.187575
0.187272
0.187016
0.186814
0.186678
0.186612
0.191533
0.19159
0.191708
0.191883
0.192107
0.192369
0.19266
0.192966
0.193272
0.193567
0.193836
0.194069
0.194254
0.194381
0.194445
0.194442
0.194374
0.194243
0.194056
0.193822
0.193551
0.193256
0.19295
0.192645
0.192356
0.192095
0.191875
0.191702
0.191586
0.19153
0.196416
0.196464
0.196562
0.19671
0.196899
0.197122
0.197369
0.197629
0.19789
0.198141
0.198372
0.198572
0.198731
0.198841
0.198896
0.198894
0.198835
0.198722
0.198561
0.19836
0.198128
0.197876
0.197615
0.197356
0.19711
0.196888
0.196699
0.196552
0.196455
0.196408
0.201393
0.201433
0.201514
0.201636
0.201793
0.201979
0.202185
0.202403
0.202623
0.202835
0.203031
0.203201
0.203337
0.203431
0.203478
0.203476
0.203426
0.20333
0.203193
0.203023
0.202827
0.202615
0.202395
0.202177
0.20197
0.201783
0.201624
0.201501
0.20142
0.20138
0.206607
0.206638
0.206703
0.206803
0.206931
0.207083
0.207253
0.207432
0.207614
0.20779
0.207953
0.208096
0.20821
0.208289
0.208329
0.208328
0.208287
0.208207
0.208094
0.207952
0.207789
0.207613
0.20743
0.207248
0.207077
0.206922
0.206791
0.20669
0.206624
0.206594
0.212214
0.212239
0.21229
0.212369
0.212471
0.212592
0.212728
0.212872
0.213019
0.213163
0.213296
0.213414
0.213507
0.213572
0.213606
0.213607
0.213575
0.213511
0.213419
0.213303
0.21317
0.213025
0.212874
0.212726
0.212586
0.212462
0.212358
0.212278
0.212228
0.212204
0.218403
0.218423
0.218462
0.218521
0.218599
0.218691
0.218796
0.218908
0.219024
0.219138
0.219245
0.219339
0.219415
0.219468
0.219497
0.219499
0.219474
0.219424
0.219351
0.219258
0.21915
0.219034
0.218913
0.218794
0.218684
0.218588
0.21851
0.218451
0.218415
0.218396
0.225409
0.225425
0.225452
0.225493
0.225547
0.225614
0.225691
0.225776
0.225864
0.225951
0.226034
0.226108
0.226168
0.22621
0.226233
0.226235
0.226216
0.226178
0.226121
0.226048
0.225965
0.225874
0.225781
0.22569
0.225608
0.225538
0.225483
0.225444
0.22542
0.225406
0.233547
0.233557
0.233572
0.233596
0.23363
0.233674
0.233727
0.233786
0.233849
0.233914
0.233976
0.234032
0.234077
0.234109
0.234126
0.234128
0.234114
0.234085
0.234043
0.233989
0.233926
0.23386
0.233792
0.233727
0.23367
0.233623
0.23359
0.233569
0.233556
0.233548
0.243256
0.243259
0.243263
0.24327
0.243286
0.243309
0.24334
0.243377
0.243419
0.243464
0.243508
0.243547
0.24358
0.243603
0.243615
0.243616
0.243606
0.243586
0.243555
0.243516
0.243473
0.243427
0.243382
0.243341
0.243307
0.243282
0.243269
0.243264
0.243263
0.243263
0.255184
0.255176
0.255169
0.255161
0.255158
0.255163
0.255174
0.255192
0.255216
0.255243
0.255271
0.255297
0.255318
0.255334
0.255341
0.255341
0.255333
0.25532
0.2553
0.255274
0.255246
0.255218
0.255193
0.255174
0.255161
0.255157
0.255163
0.255175
0.255186
0.255198
0.270284
0.270247
0.270227
0.270203
0.270184
0.270171
0.270166
0.270168
0.270176
0.270189
0.270203
0.270217
0.270229
0.270237
0.270241
0.27024
0.270235
0.270227
0.270215
0.2702
0.270185
0.270172
0.270164
0.270163
0.27017
0.270185
0.270209
0.270238
0.270263
0.270303
0.289822
0.289719
0.289673
0.289631
0.289595
0.289567
0.289548
0.289536
0.289532
0.289532
0.289535
0.28954
0.289544
0.289548
0.289549
0.289549
0.289546
0.289541
0.289535
0.289527
0.289521
0.289521
0.289527
0.289542
0.289566
0.289599
0.289639
0.289687
0.289737
0.289841
0.315343
0.315437
0.315414
0.315365
0.315319
0.31528
0.315249
0.315227
0.315213
0.315204
0.315199
0.315197
0.315198
0.315199
0.3152
0.315199
0.315197
0.315194
0.315191
0.315189
0.31519
0.315198
0.315214
0.315242
0.315279
0.315324
0.315376
0.315431
0.315456
0.315364
0.351944
0.351354
0.351282
0.351204
0.35114
0.351088
0.351049
0.351019
0.350998
0.350983
0.350974
0.350969
0.350967
0.350967
0.350967
0.350967
0.350967
0.350965
0.350963
0.350962
0.350966
0.350979
0.351003
0.35104
0.351088
0.351147
0.351219
0.351301
0.351376
0.351969
0.0320636
0.0321794
0.0325904
0.0332336
0.0340536
0.0350158
0.036078
0.0371949
0.0383186
0.0393999
0.0403904
0.0412446
0.0419228
0.0423929
0.0426325
0.0426304
0.0423867
0.0419127
0.0412311
0.0403738
0.0393802
0.0382952
0.0371672
0.0360462
0.0349812
0.0340177
0.0331983
0.0325566
0.0321469
0.0320315
0.0365608
0.036797
0.0372243
0.0378743
0.0386957
0.0396577
0.040719
0.0418348
0.0429575
0.0440379
0.0450276
0.0458813
0.0465593
0.0470295
0.0472694
0.0472673
0.0470233
0.0465492
0.0458678
0.0450111
0.0440184
0.0429342
0.041807
0.0406869
0.0396225
0.0386592
0.0378383
0.0371899
0.0367645
0.0365292
0.0587712
0.0588847
0.0593059
0.0599376
0.0607454
0.0616942
0.0627423
0.0638446
0.0649536
0.0660207
0.0669983
0.0678417
0.0685117
0.0689764
0.0692135
0.0692113
0.0689701
0.0685015
0.0678284
0.0669821
0.0660014
0.0649302
0.0638165
0.0627099
0.0616587
0.0607084
0.059901
0.0592709
0.0588516
0.0587388
0.07537
0.0756131
0.0760412
0.0766679
0.0774612
0.07839
0.079415
0.0804927
0.0815767
0.0826197
0.0835752
0.0843996
0.0850547
0.0855093
0.0857411
0.0857389
0.0855029
0.0850448
0.0843867
0.0835594
0.0826005
0.0815533
0.0804645
0.0793825
0.0783544
0.077424
0.0766308
0.0760053
0.0755785
0.0753361
0.0924553
0.0926444
0.0930492
0.0936507
0.0944155
0.0953123
0.0963028
0.0973445
0.0983924
0.0994005
0.100324
0.101121
0.101754
0.102194
0.102418
0.102416
0.102188
0.101746
0.10111
0.10031
0.0993826
0.09837
0.0973173
0.0962714
0.0952778
0.0943791
0.0936139
0.0930129
0.0926087
0.0924202
0.107242
0.107448
0.107841
0.108417
0.109149
0.110006
0.110953
0.111949
0.112951
0.113915
0.114798
0.11556
0.116166
0.116586
0.116801
0.1168
0.116582
0.116159
0.115551
0.114787
0.1139
0.112931
0.111925
0.110925
0.109974
0.109115
0.108382
0.107805
0.107412
0.107207
0.120321
0.120515
0.120886
0.12143
0.122122
0.122932
0.123828
0.12477
0.125717
0.126629
0.127464
0.128185
0.128758
0.129156
0.129359
0.129358
0.129153
0.128754
0.128179
0.127456
0.126618
0.125701
0.124749
0.123803
0.122905
0.122092
0.121399
0.120853
0.120481
0.120287
0.131739
0.131923
0.132271
0.13278
0.133427
0.134185
0.135023
0.135905
0.136791
0.137644
0.138426
0.1391
0.139636
0.140009
0.140199
0.140198
0.140007
0.139634
0.139097
0.13842
0.137636
0.136779
0.135888
0.135003
0.134162
0.133401
0.132752
0.132241
0.131892
0.131707
0.14172
0.141891
0.142213
0.142685
0.143284
0.143987
0.144763
0.14558
0.146401
0.147191
0.147914
0.148539
0.149035
0.149379
0.149556
0.149555
0.149377
0.149032
0.148535
0.147909
0.147184
0.14639
0.145565
0.144746
0.143967
0.143262
0.142661
0.142188
0.141864
0.141693
0.150464
0.15062
0.150916
0.151349
0.151899
0.152544
0.153256
0.154005
0.154758
0.155482
0.156146
0.156718
0.157173
0.157489
0.157649
0.157648
0.157485
0.157167
0.156712
0.156139
0.155475
0.154748
0.153992
0.15324
0.152527
0.151881
0.151331
0.150896
0.1506
0.150443
0.158165
0.158306
0.158575
0.158969
0.159469
0.160055
0.160703
0.161383
0.162068
0.162726
0.163328
0.163848
0.164261
0.164547
0.164693
0.16469
0.164541
0.164252
0.163838
0.163319
0.162716
0.162056
0.161371
0.160689
0.160042
0.159456
0.158956
0.158562
0.158292
0.15815
0.165002
0.165128
0.16537
0.165725
0.166176
0.166704
0.167287
0.1679
0.168517
0.169109
0.169652
0.17012
0.170492
0.170749
0.170879
0.170876
0.17074
0.170479
0.170107
0.16964
0.169098
0.168505
0.167889
0.167276
0.166695
0.166168
0.165718
0.165363
0.165121
0.164994
0.17114
0.171251
0.171466
0.171783
0.172186
0.172657
0.173178
0.173726
0.174277
0.174806
0.17529
0.175708
0.176039
0.176268
0.176384
0.176381
0.176259
0.176026
0.175693
0.175277
0.174794
0.174266
0.173717
0.173171
0.172652
0.172182
0.171781
0.171464
0.171249
0.171137
0.17673
0.176826
0.177016
0.177296
0.177653
0.17807
0.178532
0.179017
0.179505
0.179973
0.180402
0.180771
0.181064
0.181266
0.181368
0.181365
0.181257
0.18105
0.180756
0.180387
0.17996
0.179493
0.179008
0.178524
0.178065
0.17765
0.177296
0.177017
0.176828
0.17673
0.181911
0.181994
0.18216
0.182405
0.182718
0.183085
0.18349
0.183916
0.184344
0.184755
0.18513
0.185454
0.18571
0.185887
0.185977
0.185973
0.185878
0.185696
0.185438
0.185114
0.18474
0.18433
0.183904
0.18348
0.183077
0.182714
0.182405
0.182161
0.181997
0.181913
0.186816
0.186886
0.187029
0.187242
0.187513
0.187832
0.188185
0.188555
0.188927
0.189284
0.18961
0.189891
0.190113
0.190267
0.190345
0.190342
0.190259
0.1901
0.189875
0.189593
0.189267
0.188911
0.18854
0.188171
0.187822
0.187507
0.18724
0.18703
0.186889
0.186818
0.19157
0.191628
0.191749
0.191932
0.192165
0.192438
0.192741
0.19306
0.19338
0.193686
0.193967
0.194209
0.194401
0.194534
0.194601
0.194598
0.194526
0.19439
0.194195
0.193952
0.19367
0.193363
0.193044
0.192727
0.192426
0.192156
0.191927
0.191748
0.191629
0.191571
0.196297
0.196343
0.196444
0.196598
0.196794
0.197026
0.197283
0.197553
0.197824
0.198086
0.198325
0.198532
0.198697
0.198811
0.198869
0.198866
0.198805
0.198688
0.198521
0.198313
0.198073
0.197811
0.197539
0.197269
0.197014
0.196784
0.19659
0.196439
0.19634
0.196292
0.20112
0.201155
0.201237
0.201364
0.201527
0.201719
0.201933
0.202159
0.202387
0.202607
0.20281
0.202985
0.203125
0.203221
0.20327
0.203268
0.203216
0.203117
0.202977
0.202802
0.2026
0.202379
0.202151
0.201924
0.201709
0.201516
0.201353
0.201228
0.201147
0.201111
0.206168
0.206193
0.206257
0.206359
0.206492
0.206649
0.206824
0.207009
0.207197
0.207379
0.207548
0.207694
0.207811
0.207891
0.207932
0.207931
0.207889
0.207808
0.207693
0.207548
0.20738
0.207197
0.207006
0.206818
0.20664
0.20648
0.206347
0.206245
0.206181
0.206158
0.211581
0.211597
0.211646
0.211726
0.21183
0.211954
0.212094
0.212242
0.212394
0.212542
0.212679
0.212799
0.212894
0.21296
0.212995
0.212995
0.212963
0.212898
0.212805
0.212687
0.21255
0.2124
0.212244
0.21209
0.211945
0.211818
0.211712
0.211632
0.211586
0.211572
0.21752
0.217527
0.217561
0.21762
0.217698
0.217793
0.217901
0.218016
0.218136
0.218253
0.218363
0.218458
0.218535
0.218588
0.218616
0.218618
0.218593
0.218543
0.218469
0.218376
0.218266
0.218145
0.218021
0.217898
0.217785
0.217687
0.217606
0.217548
0.217517
0.217512
0.22417
0.224168
0.224189
0.224228
0.224283
0.224352
0.224431
0.224518
0.224608
0.224698
0.224783
0.224858
0.224918
0.224959
0.224981
0.224982
0.224964
0.224927
0.22487
0.224797
0.224713
0.22462
0.224524
0.224431
0.224346
0.224274
0.224217
0.224178
0.224159
0.224165
0.231756
0.231744
0.231752
0.231774
0.231808
0.231854
0.231908
0.231969
0.232034
0.232101
0.232164
0.232219
0.232264
0.232294
0.232311
0.232312
0.232299
0.232272
0.23223
0.232176
0.232113
0.232045
0.231975
0.231909
0.23185
0.231801
0.231766
0.231745
0.231739
0.231755
0.240546
0.240525
0.240522
0.240528
0.240543
0.240568
0.2406
0.240638
0.240682
0.240727
0.240771
0.24081
0.240841
0.240863
0.240874
0.240875
0.240866
0.240846
0.240816
0.240778
0.240735
0.240688
0.240643
0.240601
0.240565
0.240538
0.240523
0.240519
0.240526
0.24055
0.250847
0.250824
0.25081
0.250801
0.250798
0.250803
0.250816
0.250835
0.25086
0.250887
0.250914
0.250939
0.250959
0.250973
0.25098
0.25098
0.250973
0.25096
0.25094
0.250916
0.250888
0.25086
0.250836
0.250815
0.250801
0.250796
0.250801
0.250814
0.250832
0.250858
0.262953
0.262944
0.262921
0.262897
0.262878
0.262867
0.262864
0.262867
0.262875
0.262887
0.2629
0.262913
0.262923
0.262931
0.262934
0.262934
0.26293
0.262922
0.26291
0.262895
0.26288
0.262868
0.262861
0.262859
0.262866
0.262881
0.262904
0.262932
0.262957
0.262968
0.276967
0.276955
0.276914
0.276874
0.27684
0.276814
0.276796
0.276785
0.276781
0.27678
0.276782
0.276785
0.276788
0.276792
0.276794
0.276794
0.276792
0.276787
0.276779
0.276771
0.276767
0.276767
0.276775
0.27679
0.276814
0.276847
0.276886
0.276931
0.276973
0.276986
0.291554
0.291776
0.291756
0.291711
0.291668
0.29163
0.291601
0.291579
0.291564
0.291554
0.291547
0.291545
0.291545
0.291546
0.291547
0.291547
0.291545
0.291542
0.291538
0.291535
0.291538
0.291547
0.291566
0.291594
0.291632
0.291677
0.291727
0.291777
0.291798
0.291576
0.308758
0.308887
0.308867
0.308804
0.308746
0.308697
0.308657
0.308627
0.308605
0.308588
0.308578
0.308572
0.30857
0.308571
0.308572
0.308572
0.30857
0.308568
0.308565
0.308564
0.30857
0.308586
0.308612
0.308651
0.3087
0.308757
0.308822
0.308889
0.308912
0.308785
0.070134
0.07033
0.0708176
0.0715388
0.0724569
0.073536
0.0747291
0.0759859
0.0772524
0.0784731
0.079593
0.0805606
0.0813301
0.0818644
0.0821373
0.0821354
0.0818588
0.0813209
0.0805482
0.0795777
0.0784545
0.0772298
0.0759585
0.0746971
0.0735007
0.0724201
0.0715026
0.0707834
0.0702975
0.0701021
0.0649197
0.0652453
0.0657452
0.0664753
0.0673959
0.0684754
0.0696681
0.0709242
0.0721901
0.0734103
0.07453
0.0754976
0.0762674
0.0768023
0.0770756
0.0770736
0.0767964
0.0762581
0.0754852
0.0745148
0.0733919
0.0721676
0.0708966
0.0696355
0.0684391
0.0673578
0.0664376
0.0657093
0.0652114
0.0648867
0.0795992
0.0797639
0.0802501
0.0809602
0.0818659
0.0829302
0.0841072
0.0853471
0.0865966
0.0878009
0.088906
0.089861
0.0906208
0.0911487
0.0914184
0.0914163
0.0911428
0.0906114
0.0898487
0.088891
0.0877826
0.0865739
0.0853191
0.0840741
0.082893
0.0818266
0.0809208
0.0802121
0.0797274
0.0795635
0.0907372
0.0910122
0.0914969
0.0921985
0.0930861
0.094126
0.0952752
0.0964854
0.0977048
0.0988801
0.0999584
0.10089
0.101632
0.102148
0.102411
0.102409
0.102142
0.101623
0.100879
0.0999439
0.0988622
0.0976825
0.0964578
0.0952423
0.0940889
0.0930462
0.092158
0.0914571
0.0909731
0.0906989
0.104043
0.104256
0.104713
0.105384
0.106237
0.107239
0.108347
0.109514
0.11069
0.111823
0.112863
0.113761
0.114477
0.114974
0.115228
0.115226
0.114969
0.114469
0.113751
0.11285
0.111807
0.110669
0.109488
0.108316
0.107203
0.106199
0.105344
0.104673
0.104216
0.104004
0.115996
0.116224
0.116664
0.117306
0.11812
0.119075
0.120132
0.121244
0.122365
0.123445
0.124436
0.125293
0.125975
0.126449
0.126691
0.12669
0.126445
0.125969
0.125286
0.124427
0.123432
0.122347
0.121221
0.120104
0.119043
0.118085
0.117269
0.116626
0.116185
0.115957
0.127063
0.127274
0.127686
0.12829
0.129057
0.129958
0.130953
0.132002
0.133058
0.134076
0.13501
0.135817
0.13646
0.136906
0.137135
0.137134
0.136904
0.136456
0.135812
0.135003
0.134066
0.133044
0.131982
0.130929
0.129929
0.129026
0.128257
0.12765
0.127237
0.127026
0.136979
0.137178
0.137562
0.138126
0.138842
0.139681
0.140609
0.141587
0.142572
0.14352
0.14439
0.145142
0.145741
0.146156
0.146369
0.146368
0.146154
0.145738
0.145139
0.144385
0.143512
0.142559
0.14157
0.140588
0.139656
0.138814
0.138096
0.13753
0.137144
0.136945
0.145824
0.146007
0.146361
0.146881
0.147542
0.148317
0.149174
0.150076
0.150984
0.151858
0.15266
0.153353
0.153904
0.154287
0.154483
0.154482
0.154285
0.153901
0.153349
0.152655
0.151851
0.150972
0.15006
0.149155
0.148295
0.147518
0.146856
0.146334
0.145978
0.145795
0.153684
0.153851
0.154174
0.15465
0.155254
0.155962
0.156745
0.157569
0.158398
0.159197
0.159929
0.160561
0.161064
0.161413
0.161591
0.161589
0.161409
0.161058
0.160555
0.159922
0.159188
0.158387
0.157555
0.156729
0.155945
0.155235
0.154631
0.154154
0.15383
0.153664
0.160684
0.160833
0.161125
0.161556
0.162103
0.162744
0.163453
0.164199
0.164949
0.165671
0.166333
0.166905
0.167359
0.167674
0.167834
0.167832
0.167667
0.16735
0.166895
0.166324
0.165661
0.164938
0.164187
0.16344
0.162732
0.16209
0.161544
0.161113
0.160821
0.160672
0.166951
0.167083
0.167344
0.16773
0.168221
0.168796
0.169432
0.170101
0.170774
0.171422
0.172015
0.172527
0.172934
0.173216
0.173359
0.173356
0.173207
0.172922
0.172515
0.172003
0.171411
0.170764
0.170091
0.169424
0.168789
0.168215
0.167725
0.167339
0.167079
0.166947
0.172617
0.172731
0.172962
0.173305
0.173741
0.174253
0.174818
0.175413
0.176012
0.176587
0.177114
0.177569
0.17793
0.17818
0.178306
0.178303
0.17817
0.177917
0.177555
0.177101
0.176575
0.176001
0.175404
0.174812
0.174249
0.173739
0.173304
0.172962
0.172733
0.172618
0.177805
0.177904
0.178105
0.178407
0.178791
0.179242
0.179741
0.180266
0.180793
0.1813
0.181764
0.182164
0.182481
0.182701
0.182812
0.182809
0.182692
0.182468
0.182149
0.181749
0.181286
0.18078
0.180255
0.179734
0.179239
0.17879
0.178408
0.178109
0.177908
0.177809
0.182637
0.18272
0.182895
0.183157
0.183492
0.183886
0.184323
0.184781
0.185242
0.185685
0.186089
0.186437
0.186714
0.186906
0.187003
0.187
0.186897
0.186701
0.186422
0.186073
0.185669
0.185227
0.184768
0.184313
0.183881
0.183491
0.183159
0.182899
0.182726
0.182643
0.187228
0.187297
0.187446
0.187672
0.187962
0.188303
0.18868
0.189077
0.189476
0.189858
0.190208
0.190509
0.190748
0.190914
0.190999
0.190996
0.190907
0.190737
0.190495
0.190192
0.189842
0.189459
0.189062
0.188668
0.188295
0.187959
0.187674
0.187451
0.187303
0.187234
0.19169
0.191746
0.191871
0.192064
0.192311
0.192603
0.192925
0.193265
0.193606
0.193933
0.194233